 Entering Gaussian System, Link 0=g16
 Initial command:
 /nfs-share/home/2100011873/Gaussian16_AVX2/g16/l1.exe "/nfs-share/home/2100011873/GaussTmp/Gau-146403.inp" -scrdir="/nfs-share/home/2100011873/GaussTmp/"
 Entering Link 1 = /nfs-share/home/2100011873/Gaussian16_AVX2/g16/l1.exe PID=    146404.
  
 Copyright (c) 1988-2021, Gaussian, Inc.  All Rights Reserved.
  
 This is part of the Gaussian(R) 16 program.  It is based on
 the Gaussian(R) 09 system (copyright 2009, Gaussian, Inc.),
 the Gaussian(R) 03 system (copyright 2003, Gaussian, Inc.),
 the Gaussian(R) 98 system (copyright 1998, Gaussian, Inc.),
 the Gaussian(R) 94 system (copyright 1995, Gaussian, Inc.),
 the Gaussian 92(TM) system (copyright 1992, Gaussian, Inc.),
 the Gaussian 90(TM) system (copyright 1990, Gaussian, Inc.),
 the Gaussian 88(TM) system (copyright 1988, Gaussian, Inc.),
 the Gaussian 86(TM) system (copyright 1986, Carnegie Mellon
 University), and the Gaussian 82(TM) system (copyright 1983,
 Carnegie Mellon University). Gaussian is a federally registered
 trademark of Gaussian, Inc.
  
 This software contains proprietary and confidential information,
 including trade secrets, belonging to Gaussian, Inc.
  
 This software is provided under written license and may be
 used, copied, transmitted, or stored only in accord with that
 written license.
  
 The following legend is applicable only to US Government
 contracts under FAR:
  
                    RESTRICTED RIGHTS LEGEND
  
 Use, reproduction and disclosure by the US Government is
 subject to restrictions as set forth in subparagraphs (a)
 and (c) of the Commercial Computer Software - Restricted
 Rights clause in FAR 52.227-19.
  
 Gaussian, Inc.
 340 Quinnipiac St., Bldg. 40, Wallingford CT 06492
  
  
 ---------------------------------------------------------------
 Warning -- This program may not be used in any manner that
 competes with the business of Gaussian, Inc. or will provide
 assistance to any competitor of Gaussian, Inc.  The licensee
 of this program is prohibited from giving any competitor of
 Gaussian, Inc. access to this program.  By using this program,
 the user acknowledges that Gaussian, Inc. is engaged in the
 business of creating and licensing software in the field of
 computational chemistry and represents and warrants to the
 licensee that it is not a competitor of Gaussian, Inc. and that
 it will not use this program in any manner prohibited above.
 ---------------------------------------------------------------
  

 Cite this work as:
 Gaussian 16, Revision C.02,
 M. J. Frisch, G. W. Trucks, H. B. Schlegel, G. E. Scuseria, 
 M. A. Robb, J. R. Cheeseman, G. Scalmani, V. Barone, 
 G. A. Petersson, H. Nakatsuji, X. Li, M. Caricato, A. V. Marenich, 
 J. Bloino, B. G. Janesko, R. Gomperts, B. Mennucci, H. P. Hratchian, 
 J. V. Ortiz, A. F. Izmaylov, J. L. Sonnenberg, D. Williams-Young, 
 F. Ding, F. Lipparini, F. Egidi, J. Goings, B. Peng, A. Petrone, 
 T. Henderson, D. Ranasinghe, V. G. Zakrzewski, J. Gao, N. Rega, 
 G. Zheng, W. Liang, M. Hada, M. Ehara, K. Toyota, R. Fukuda, 
 J. Hasegawa, M. Ishida, T. Nakajima, Y. Honda, O. Kitao, H. Nakai, 
 T. Vreven, K. Throssell, J. A. Montgomery, Jr., J. E. Peralta, 
 F. Ogliaro, M. J. Bearpark, J. J. Heyd, E. N. Brothers, K. N. Kudin, 
 V. N. Staroverov, T. A. Keith, R. Kobayashi, J. Normand, 
 K. Raghavachari, A. P. Rendell, J. C. Burant, S. S. Iyengar, 
 J. Tomasi, M. Cossi, J. M. Millam, M. Klene, C. Adamo, R. Cammi, 
 J. W. Ochterski, R. L. Martin, K. Morokuma, O. Farkas, 
 J. B. Foresman, and D. J. Fox, Gaussian, Inc., Wallingford CT, 2019.
 
 ******************************************
 Gaussian 16:  ES64L-G16RevC.02  7-Dec-2021
                 6-Nov-2023 
 ******************************************
 %chk=B2.chk
 %nprocshared=36
 Will use up to   36 processors via shared memory.
 %mem=128GB
 ---------------------------------------------
 # opt b3lyp/6-31g* scrf(smd, solvent=ethanol)
 ---------------------------------------------
 1/18=20,19=15,26=3,38=1/1,3;
 2/9=110,12=2,17=6,18=5,40=1/2;
 3/5=1,6=6,7=1,11=2,25=1,30=1,70=32201,71=1,72=4,74=-5/1,2,3;
 4//1;
 5/5=2,38=5,53=4/2;
 6/7=2,8=2,9=2,10=2,28=1/1;
 7//1,2,3,16;
 1/18=20,19=15,26=3/3(2);
 2/9=110/2;
 99//99;
 2/9=110/2;
 3/5=1,6=6,7=1,11=2,25=1,30=1,70=32205,71=1,72=4,74=-5/1,2,3;
 4/5=5,16=3,69=1/1;
 5/5=2,38=5,53=4/2;
 7//1,2,3,16;
 1/18=20,19=15,26=3/3(-5);
 2/9=110/2;
 6/7=2,8=2,9=2,10=2,19=2,28=1/1;
 99/9=1/99;
 ---
 B-2
 ---
 Symbolic Z-matrix:
 Charge =  0 Multiplicity = 1
 C                     4.18604  -0.98524  -0.00011 
 C                     2.96568  -0.09996   0.00002 
 C                     1.72426  -0.63647  -0.00021 
 C                     0.45258   0.05967  -0.00018 
 C                    -0.74108  -0.57941  -0.00021 
 C                    -2.06437   0.04042  -0.00014 
 C                    -3.15288  -0.76323   0.00025 
 C                    -4.60417  -0.38585   0.00043 
 C                     3.26039   1.37827   0.00057 
 C                    -2.13318   1.55026  -0.00054 
 H                     4.81718  -0.79122  -0.87967 
 H                     4.8171   -0.79165   0.8796 
 H                     3.9221   -2.04745  -0.00037 
 H                     1.65238  -1.72528  -0.00049 
 H                     0.46913   1.14647  -0.00011 
 H                    -0.73542  -1.67054  -0.0003 
 H                    -2.96813  -1.83864   0.00044 
 H                    -4.77347   0.69375   0.00148 
 H                    -5.11489  -0.80271  -0.87923 
 H                    -5.11504  -0.80447   0.87914 
 H                     2.363     2.00076   0.00008 
 H                     3.85901   1.65372   0.88055 
 H                     3.86032   1.65418  -0.87836 
 H                    -1.62727   1.96404  -0.8821 
 H                    -3.15869   1.92368  -0.00045 
 H                    -1.62693   1.9646    0.88057 
 

 GradGradGradGradGradGradGradGradGradGradGradGradGradGradGradGradGradGrad
 Berny optimization.
 Initialization pass.
                           ----------------------------
                           !    Initial Parameters    !
                           ! (Angstroms and Degrees)  !
 --------------------------                            --------------------------
 ! Name  Definition              Value          Derivative Info.                !
 --------------------------------------------------------------------------------
 ! R1    R(1,2)                  1.5077         estimate D2E/DX2                !
 ! R2    R(1,11)                 1.0998         estimate D2E/DX2                !
 ! R3    R(1,12)                 1.0998         estimate D2E/DX2                !
 ! R4    R(1,13)                 1.0945         estimate D2E/DX2                !
 ! R5    R(2,3)                  1.3524         estimate D2E/DX2                !
 ! R6    R(2,9)                  1.5073         estimate D2E/DX2                !
 ! R7    R(3,4)                  1.4498         estimate D2E/DX2                !
 ! R8    R(3,14)                 1.0912         estimate D2E/DX2                !
 ! R9    R(4,5)                  1.354          estimate D2E/DX2                !
 ! R10   R(4,15)                 1.0869         estimate D2E/DX2                !
 ! R11   R(5,6)                  1.4613         estimate D2E/DX2                !
 ! R12   R(5,16)                 1.0911         estimate D2E/DX2                !
 ! R13   R(6,7)                  1.353          estimate D2E/DX2                !
 ! R14   R(6,10)                 1.5114         estimate D2E/DX2                !
 ! R15   R(7,8)                  1.4996         estimate D2E/DX2                !
 ! R16   R(7,17)                 1.0912         estimate D2E/DX2                !
 ! R17   R(8,18)                 1.0928         estimate D2E/DX2                !
 ! R18   R(8,19)                 1.0993         estimate D2E/DX2                !
 ! R19   R(8,20)                 1.0993         estimate D2E/DX2                !
 ! R20   R(9,21)                 1.0922         estimate D2E/DX2                !
 ! R21   R(9,22)                 1.0994         estimate D2E/DX2                !
 ! R22   R(9,23)                 1.0993         estimate D2E/DX2                !
 ! R23   R(10,24)                1.0974         estimate D2E/DX2                !
 ! R24   R(10,25)                1.0914         estimate D2E/DX2                !
 ! R25   R(10,26)                1.0974         estimate D2E/DX2                !
 ! A1    A(2,1,11)             111.1605         estimate D2E/DX2                !
 ! A2    A(2,1,12)             111.1625         estimate D2E/DX2                !
 ! A3    A(2,1,13)             112.0034         estimate D2E/DX2                !
 ! A4    A(11,1,12)            106.222          estimate D2E/DX2                !
 ! A5    A(11,1,13)            108.0235         estimate D2E/DX2                !
 ! A6    A(12,1,13)            108.0226         estimate D2E/DX2                !
 ! A7    A(1,2,3)              120.6688         estimate D2E/DX2                !
 ! A8    A(1,2,9)              114.683          estimate D2E/DX2                !
 ! A9    A(3,2,9)              124.6482         estimate D2E/DX2                !
 ! A10   A(2,3,4)              127.93           estimate D2E/DX2                !
 ! A11   A(2,3,14)             117.15           estimate D2E/DX2                !
 ! A12   A(4,3,14)             114.92           estimate D2E/DX2                !
 ! A13   A(3,4,5)              123.1385         estimate D2E/DX2                !
 ! A14   A(3,4,15)             117.8246         estimate D2E/DX2                !
 ! A15   A(5,4,15)             119.0369         estimate D2E/DX2                !
 ! A16   A(4,5,6)              126.7372         estimate D2E/DX2                !
 ! A17   A(4,5,16)             117.8672         estimate D2E/DX2                !
 ! A18   A(6,5,16)             115.3956         estimate D2E/DX2                !
 ! A19   A(5,6,7)              118.4634         estimate D2E/DX2                !
 ! A20   A(5,6,10)             117.7074         estimate D2E/DX2                !
 ! A21   A(7,6,10)             123.8292         estimate D2E/DX2                !
 ! A22   A(6,7,8)              128.9861         estimate D2E/DX2                !
 ! A23   A(6,7,17)             116.6902         estimate D2E/DX2                !
 ! A24   A(8,7,17)             114.3237         estimate D2E/DX2                !
 ! A25   A(7,8,18)             113.4876         estimate D2E/DX2                !
 ! A26   A(7,8,19)             110.7396         estimate D2E/DX2                !
 ! A27   A(7,8,20)             110.7347         estimate D2E/DX2                !
 ! A28   A(18,8,19)            107.6636         estimate D2E/DX2                !
 ! A29   A(18,8,20)            107.6655         estimate D2E/DX2                !
 ! A30   A(19,8,20)            106.2207         estimate D2E/DX2                !
 ! A31   A(2,9,21)             113.4724         estimate D2E/DX2                !
 ! A32   A(2,9,22)             110.6384         estimate D2E/DX2                !
 ! A33   A(2,9,23)             110.6427         estimate D2E/DX2                !
 ! A34   A(21,9,22)            107.7563         estimate D2E/DX2                !
 ! A35   A(21,9,23)            107.7578         estimate D2E/DX2                !
 ! A36   A(22,9,23)            106.2562         estimate D2E/DX2                !
 ! A37   A(6,10,24)            110.8481         estimate D2E/DX2                !
 ! A38   A(6,10,25)            112.6169         estimate D2E/DX2                !
 ! A39   A(6,10,26)            110.8517         estimate D2E/DX2                !
 ! A40   A(24,10,25)           107.7123         estimate D2E/DX2                !
 ! A41   A(24,10,26)           106.8549         estimate D2E/DX2                !
 ! A42   A(25,10,26)           107.7115         estimate D2E/DX2                !
 ! D1    D(11,1,2,3)           120.9465         estimate D2E/DX2                !
 ! D2    D(11,1,2,9)           -59.06           estimate D2E/DX2                !
 ! D3    D(12,1,2,3)          -120.9498         estimate D2E/DX2                !
 ! D4    D(12,1,2,9)            59.0437         estimate D2E/DX2                !
 ! D5    D(13,1,2,3)            -0.0015         estimate D2E/DX2                !
 ! D6    D(13,1,2,9)           179.992          estimate D2E/DX2                !
 ! D7    D(1,2,3,4)           -179.9978         estimate D2E/DX2                !
 ! D8    D(1,2,3,14)             0.0            estimate D2E/DX2                !
 ! D9    D(9,2,3,4)              0.0094         estimate D2E/DX2                !
 ! D10   D(9,2,3,14)          -179.9928         estimate D2E/DX2                !
 ! D11   D(1,2,9,21)           179.967          estimate D2E/DX2                !
 ! D12   D(1,2,9,22)           -58.779          estimate D2E/DX2                !
 ! D13   D(1,2,9,23)            58.7077         estimate D2E/DX2                !
 ! D14   D(3,2,9,21)            -0.0398         estimate D2E/DX2                !
 ! D15   D(3,2,9,22)           121.2142         estimate D2E/DX2                !
 ! D16   D(3,2,9,23)          -121.2991         estimate D2E/DX2                !
 ! D17   D(2,3,4,5)           -179.9888         estimate D2E/DX2                !
 ! D18   D(2,3,4,15)             0.0102         estimate D2E/DX2                !
 ! D19   D(14,3,4,5)             0.0134         estimate D2E/DX2                !
 ! D20   D(14,3,4,15)         -179.9876         estimate D2E/DX2                !
 ! D21   D(3,4,5,6)            179.9982         estimate D2E/DX2                !
 ! D22   D(3,4,5,16)            -0.003          estimate D2E/DX2                !
 ! D23   D(15,4,5,6)            -0.0008         estimate D2E/DX2                !
 ! D24   D(15,4,5,16)          179.9981         estimate D2E/DX2                !
 ! D25   D(4,5,6,7)           -179.9793         estimate D2E/DX2                !
 ! D26   D(4,5,6,10)             0.0221         estimate D2E/DX2                !
 ! D27   D(16,5,6,7)             0.0218         estimate D2E/DX2                !
 ! D28   D(16,5,6,10)         -179.9768         estimate D2E/DX2                !
 ! D29   D(5,6,7,8)            179.9989         estimate D2E/DX2                !
 ! D30   D(5,6,7,17)            -0.0032         estimate D2E/DX2                !
 ! D31   D(10,6,7,8)            -0.0026         estimate D2E/DX2                !
 ! D32   D(10,6,7,17)          179.9953         estimate D2E/DX2                !
 ! D33   D(5,6,10,24)           59.2481         estimate D2E/DX2                !
 ! D34   D(5,6,10,25)         -179.9996         estimate D2E/DX2                !
 ! D35   D(5,6,10,26)          -59.2457         estimate D2E/DX2                !
 ! D36   D(7,6,10,24)         -120.7505         estimate D2E/DX2                !
 ! D37   D(7,6,10,25)            0.0018         estimate D2E/DX2                !
 ! D38   D(7,6,10,26)          120.7557         estimate D2E/DX2                !
 ! D39   D(6,7,8,18)            -0.0729         estimate D2E/DX2                !
 ! D40   D(6,7,8,19)           121.1461         estimate D2E/DX2                !
 ! D41   D(6,7,8,20)          -121.2908         estimate D2E/DX2                !
 ! D42   D(17,7,8,18)          179.9292         estimate D2E/DX2                !
 ! D43   D(17,7,8,19)          -58.8518         estimate D2E/DX2                !
 ! D44   D(17,7,8,20)           58.7113         estimate D2E/DX2                !
 --------------------------------------------------------------------------------
 Trust Radius=3.00D-01 FncErr=1.00D-07 GrdErr=1.00D-06 EigMax=2.50D+02 EigMin=1.00D-04
 Number of steps in this run=    121 maximum allowed number of steps=    156.
 GradGradGradGradGradGradGradGradGradGradGradGradGradGradGradGradGradGrad

                          Input orientation:                          
 ---------------------------------------------------------------------
 Center     Atomic      Atomic             Coordinates (Angstroms)
 Number     Number       Type             X           Y           Z
 ---------------------------------------------------------------------
      1          6           0        4.186043   -0.985243   -0.000113
      2          6           0        2.965678   -0.099955    0.000017
      3          6           0        1.724259   -0.636470   -0.000213
      4          6           0        0.452578    0.059668   -0.000179
      5          6           0       -0.741079   -0.579413   -0.000205
      6          6           0       -2.064372    0.040415   -0.000137
      7          6           0       -3.152878   -0.763225    0.000253
      8          6           0       -4.604173   -0.385851    0.000427
      9          6           0        3.260391    1.378273    0.000567
     10          6           0       -2.133175    1.550261   -0.000541
     11          1           0        4.817179   -0.791217   -0.879673
     12          1           0        4.817098   -0.791647    0.879598
     13          1           0        3.922096   -2.047445   -0.000374
     14          1           0        1.652379   -1.725280   -0.000493
     15          1           0        0.469127    1.146468   -0.000113
     16          1           0       -0.735417   -1.670538   -0.000304
     17          1           0       -2.968126   -1.838635    0.000440
     18          1           0       -4.773466    0.693748    0.001475
     19          1           0       -5.114894   -0.802710   -0.879231
     20          1           0       -5.115042   -0.804470    0.879137
     21          1           0        2.363003    2.000757    0.000075
     22          1           0        3.859006    1.653716    0.880554
     23          1           0        3.860320    1.654180   -0.878355
     24          1           0       -1.627265    1.964044   -0.882102
     25          1           0       -3.158688    1.923675   -0.000452
     26          1           0       -1.626926    1.964596    0.880567
 ---------------------------------------------------------------------
                    Distance matrix (angstroms):
                    1          2          3          4          5
     1  C    0.000000
     2  C    1.507656   0.000000
     3  C    2.486367   1.352394   0.000000
     4  C    3.876932   2.518164   1.449752   0.000000
     5  C    4.943807   3.737637   2.465998   1.353973   0.000000
     6  C    6.334008   5.032008   3.848623   2.517024   1.461264
     7  C    7.342278   6.154401   4.878784   3.698171   2.418793
     8  C    8.810628   7.575248   6.333393   5.076339   3.867940
     9  C    2.538314   1.507320   2.533553   3.102021   4.454694
    10  C    6.808913   5.359246   4.434139   2.984625   2.544296
    11  H    1.099820   2.163274   3.219247   4.532908   5.631390
    12  H    1.099819   2.163298   3.219286   4.532966   5.631379
    13  H    1.094505   2.169667   2.611769   4.059246   4.888795
    14  H    2.639528   2.089602   1.091180   2.150712   2.653611
    15  H    4.284817   2.790401   2.180418   1.086926   2.107905
    16  H    4.968943   4.020552   2.668202   2.098796   1.091140
    17  H    7.204888   6.183287   4.843932   3.912131   2.558394
    18  H    9.115471   7.779738   6.632489   5.264370   4.228603
    19  H    9.344174   8.158590   6.897414   5.702032   4.466856
    20  H    9.344300   8.158874   6.897646   5.702484   4.467152
    21  H    3.498524   2.185454   2.713478   2.723518   4.036410
    22  H    2.801184   2.156094   3.252360   3.862697   5.188775
    23  H    2.800707   2.156133   3.252840   3.863466   5.189697
    24  H    6.578050   5.112079   4.332795   2.954688   2.834121
    25  H    7.899802   6.450034   5.513394   4.063959   3.479983
    26  H    6.577823   5.111727   4.332639   2.954454   2.834161
                    6          7          8          9         10
     6  C    0.000000
     7  C    1.353027   0.000000
     8  C    2.575324   1.499556   0.000000
     9  C    5.490261   6.761363   8.059994   0.000000
    10  C    1.511413   2.528243   3.139166   5.396308   0.000000
    11  H    6.987198   8.018532   9.471049   2.811601   7.386665
    12  H    6.987195   8.018390   9.470901   2.811509   7.386845
    13  H    6.340107   7.190583   8.686666   3.489040   7.043422
    14  H    4.114841   4.900617   6.398321   3.495389   5.005955
    15  H    2.764411   4.094612   5.299658   2.800873   2.633444
    16  H    2.166444   2.582118   4.076481   5.026105   3.511022
    17  H    2.085090   1.091165   2.187974   7.010201   3.490238
    18  H    2.786761   2.179238   1.092792   8.062967   2.775744
    19  H    3.284715   2.150479   1.099275   8.699203   3.898617
    20  H    3.285352   2.150401   1.099254   8.699663   3.900016
    21  H    4.841961   6.169647   7.364607   1.092150   4.518690
    22  H    6.201997   7.468805   8.749849   1.099357   6.057497
    23  H    6.203022   7.469990   8.751093   1.099338   6.058328
    24  H    2.160850   3.247159   3.893950   5.001141   1.097411
    25  H    2.178117   2.686906   2.724580   6.442208   1.091382
    26  H    2.160896   3.247228   3.894001   5.000404   1.097412
                   11         12         13         14         15
    11  H    0.000000
    12  H    1.759271   0.000000
    13  H    1.775514   1.775502   0.000000
    14  H    3.414878   3.414920   2.292467   0.000000
    15  H    4.840848   4.840974   4.703624   3.105966   0.000000
    16  H    5.690151   5.690088   4.672739   2.388423   3.063731
    17  H    7.904597   7.904354   6.893385   4.621895   4.552532
    18  H    9.744846   9.744558   9.117398   6.866089   5.262104
    19  H    9.932080  10.086529   9.164548   6.886167   5.979418
    20  H   10.086754   9.932148   9.164518   6.886191   5.980149
    21  H    3.819955   3.820165   4.338054   3.793196   2.077637
    22  H    3.161359   2.626355   3.805077   4.130746   3.538948
    23  H    2.625937   3.160363   3.804825   4.131149   3.539671
    24  H    7.008732   7.226841   6.903977   5.014420   2.416856
    25  H    8.471017   8.471164   8.118331   6.038314   3.710134
    26  H    7.226302   7.008732   6.903925   5.014508   2.416272
                   16         17         18         19         20
    16  H    0.000000
    17  H    2.239028   0.000000
    18  H    4.679283   3.110019   0.000000
    19  H    4.550325   2.540782   1.769633   0.000000
    20  H    4.550231   2.539853   1.769639   1.758369   0.000000
    21  H    4.804021   6.569769   7.255168   8.034398   8.035123
    22  H    5.738928   7.718863   8.730057   9.468989   9.304634
    23  H    5.739819   7.720085   8.731483   9.305416   9.470526
    24  H    3.844886   4.127609   3.506129   4.451796   4.788655
    25  H    4.334814   3.767133   2.029835   3.468742   3.470414
    26  H    3.845117   4.127712   3.505506   4.787566   4.453614
                   21         22         23         24         25
    21  H    0.000000
    22  H    1.770228   0.000000
    23  H    1.770230   1.758910   0.000000
    24  H    4.086786   5.770826   5.496328   0.000000
    25  H    5.522229   7.077929   7.078829   1.767539   0.000000
    26  H    4.086087   5.494734   5.770618   1.762669   1.767530
                   26
    26  H    0.000000
 Stoichiometry    C10H16
 Framework group  C1[X(C10H16)]
 Deg. of freedom    72
 Full point group                 C1      NOp   1
 Largest Abelian subgroup         C1      NOp   1
 Largest concise Abelian subgroup C1      NOp   1
                         Standard orientation:                         
 ---------------------------------------------------------------------
 Center     Atomic      Atomic             Coordinates (Angstroms)
 Number     Number       Type             X           Y           Z
 ---------------------------------------------------------------------
      1          6           0        4.186043   -0.985243   -0.000113
      2          6           0        2.965678   -0.099955    0.000017
      3          6           0        1.724259   -0.636470   -0.000213
      4          6           0        0.452578    0.059668   -0.000179
      5          6           0       -0.741079   -0.579413   -0.000205
      6          6           0       -2.064372    0.040415   -0.000137
      7          6           0       -3.152878   -0.763225    0.000253
      8          6           0       -4.604173   -0.385851    0.000427
      9          6           0        3.260391    1.378273    0.000567
     10          6           0       -2.133175    1.550261   -0.000541
     11          1           0        4.817179   -0.791217   -0.879673
     12          1           0        4.817098   -0.791647    0.879598
     13          1           0        3.922096   -2.047445   -0.000374
     14          1           0        1.652379   -1.725280   -0.000493
     15          1           0        0.469127    1.146468   -0.000113
     16          1           0       -0.735417   -1.670538   -0.000304
     17          1           0       -2.968126   -1.838635    0.000440
     18          1           0       -4.773466    0.693748    0.001475
     19          1           0       -5.114894   -0.802710   -0.879231
     20          1           0       -5.115042   -0.804470    0.879137
     21          1           0        2.363003    2.000757    0.000075
     22          1           0        3.859006    1.653716    0.880554
     23          1           0        3.860320    1.654180   -0.878355
     24          1           0       -1.627265    1.964044   -0.882102
     25          1           0       -3.158688    1.923675   -0.000452
     26          1           0       -1.626926    1.964596    0.880567
 ---------------------------------------------------------------------
 Rotational constants (GHZ):           4.0045797           0.4300443           0.3921027
 Standard basis: 6-31G(d) (6D, 7F)
 There are   182 symmetry adapted cartesian basis functions of A   symmetry.
 There are   182 symmetry adapted basis functions of A   symmetry.
   182 basis functions,   344 primitive gaussians,   182 cartesian basis functions
    38 alpha electrons       38 beta electrons
       nuclear repulsion energy       478.6004483981 Hartrees.
 NAtoms=   26 NActive=   26 NUniq=   26 SFac= 1.00D+00 NAtFMM=   60 NAOKFM=F Big=F
 Integral buffers will be    131072 words long.
 Raffenetti 2 integral format.
 Two-electron integral symmetry is turned on.
 ------------------------------------------------------------------------------
 Polarizable Continuum Model (PCM)
 =================================
 Model                : PCM.
 Atomic radii         : SMD-Coulomb.
 Polarization charges : Total charges.
 Charge compensation  : None.
 Solution method      : On-the-fly selection.
 Cavity type          : VdW (van der Waals Surface) (Alpha=1.000).
 Cavity algorithm     : GePol (No added spheres)
                        Default sphere list used, NSphG=   26.
                        Lebedev-Laikov grids with approx.  5.0 points / Ang**2.
                        Smoothing algorithm: York/Karplus (Gamma=1.0000).
                        Polarization charges: spherical gaussians, with
                                              point-specific exponents (IZeta= 3).
                        Self-potential: point-specific (ISelfS= 7).
                        Self-field    : sphere-specific E.n sum rule (ISelfD= 2).
 1st derivatives      : Analytical E(r).r(x)/FMM algorithm (CHGder, D1EAlg=3).
                        Cavity 1st derivative terms included.
 Solvent              : Ethanol, Eps=  24.852000 Eps(inf)=   1.852593
 ------------------------------------------------------------------------------
 ------------------------------------------------------------------------------
 Atomic radii for non-electrostatic terms: SMD-CDS.
 ------------------------------------------------------------------------------
 Nuclear repulsion after PCM non-electrostatic terms =      478.5987318692 Hartrees.
 One-electron integrals computed using PRISM.
 NBasis=   182 RedAO= T EigKep=  1.46D-03  NBF=   182
 NBsUse=   182 1.00D-06 EigRej= -1.00D+00 NBFU=   182
 ExpMin= 1.61D-01 ExpMax= 3.05D+03 ExpMxC= 4.57D+02 IAcc=3 IRadAn=         5 AccDes= 0.00D+00
 Harris functional with IExCor=  402 and IRadAn=       5 diagonalized for initial guess.
 HarFok:  IExCor=  402 AccDes= 0.00D+00 IRadAn=         5 IDoV= 1 UseB2=F ITyADJ=14
 ICtDFT=  3500011 ScaDFX=  1.000000  1.000000  1.000000  1.000000
 FoFCou: FMM=F IPFlag=           0 FMFlag=      100000 FMFlg1=           0
         NFxFlg=           0 DoJE=T BraDBF=F KetDBF=T FulRan=T
         wScrn=  0.000000 ICntrl=       500 IOpCl=  0 I1Cent=   200000004 NGrid=           0
         NMat0=    1 NMatS0=      1 NMatT0=    0 NMatD0=    1 NMtDS0=    0 NMtDT0=    0
 Petite list used in FoFCou.
 Requested convergence on RMS density matrix=1.00D-08 within 128 cycles.
 Requested convergence on MAX density matrix=1.00D-06.
 Requested convergence on             energy=1.00D-06.
 No special actions if energy rises.
 Inv3:  Mode=1 IEnd=    11116875.
 Iteration    1 A*A^-1 deviation from unit magnitude is 3.33D-15 for    228.
 Iteration    1 A*A^-1 deviation from orthogonality  is 2.21D-15 for   1524     52.
 Iteration    1 A^-1*A deviation from unit magnitude is 2.66D-15 for     95.
 Iteration    1 A^-1*A deviation from orthogonality  is 1.78D-15 for   1628    640.
 Error on total polarization charges =  0.04857
 SCF Done:  E(RB3LYP) =  -390.678959616     A.U. after   11 cycles
            NFock= 11  Conv=0.79D-08     -V/T= 2.0102
 SMD-CDS (non-electrostatic) energy       (kcal/mol) =      -1.08
 (included in total energy above)

 **********************************************************************

            Population analysis using the SCF Density.

 **********************************************************************

 Orbital symmetries:
       Occupied  (A) (A) (A) (A) (A) (A) (A) (A) (A) (A) (A) (A)
                 (A) (A) (A) (A) (A) (A) (A) (A) (A) (A) (A) (A)
                 (A) (A) (A) (A) (A) (A) (A) (A) (A) (A) (A) (A)
                 (A) (A)
       Virtual   (A) (A) (A) (A) (A) (A) (A) (A) (A) (A) (A) (A)
                 (A) (A) (A) (A) (A) (A) (A) (A) (A) (A) (A) (A)
                 (A) (A) (A) (A) (A) (A) (A) (A) (A) (A) (A) (A)
                 (A) (A) (A) (A) (A) (A) (A) (A) (A) (A) (A) (A)
                 (A) (A) (A) (A) (A) (A) (A) (A) (A) (A) (A) (A)
                 (A) (A) (A) (A) (A) (A) (A) (A) (A) (A) (A) (A)
                 (A) (A) (A) (A) (A) (A) (A) (A) (A) (A) (A) (A)
                 (A) (A) (A) (A) (A) (A) (A) (A) (A) (A) (A) (A)
                 (A) (A) (A) (A) (A) (A) (A) (A) (A) (A) (A) (A)
                 (A) (A) (A) (A) (A) (A) (A) (A) (A) (A) (A) (A)
                 (A) (A) (A) (A) (A) (A) (A) (A) (A) (A) (A) (A)
                 (A) (A) (A) (A) (A) (A) (A) (A) (A) (A) (A) (A)
 The electronic state is 1-A.
 Alpha  occ. eigenvalues --  -10.19003 -10.18668 -10.17955 -10.17785 -10.17704
 Alpha  occ. eigenvalues --  -10.17284 -10.17236 -10.17096 -10.17036 -10.16961
 Alpha  occ. eigenvalues --   -0.82034  -0.80149  -0.75363  -0.71374  -0.68305
 Alpha  occ. eigenvalues --   -0.67439  -0.64396  -0.56337  -0.52145  -0.50309
 Alpha  occ. eigenvalues --   -0.46914  -0.44907  -0.43100  -0.42217  -0.41227
 Alpha  occ. eigenvalues --   -0.40528  -0.39338  -0.37513  -0.37486  -0.36701
 Alpha  occ. eigenvalues --   -0.36291  -0.35575  -0.34683  -0.33099  -0.31836
 Alpha  occ. eigenvalues --   -0.31326  -0.25628  -0.18854
 Alpha virt. eigenvalues --   -0.02864   0.05544   0.10642   0.11178   0.11254
 Alpha virt. eigenvalues --    0.11844   0.14304   0.14559   0.15563   0.16170
 Alpha virt. eigenvalues --    0.17340   0.17759   0.18669   0.19823   0.19826
 Alpha virt. eigenvalues --    0.20240   0.21497   0.22929   0.23793   0.24736
 Alpha virt. eigenvalues --    0.26092   0.27155   0.30192   0.35803   0.37945
 Alpha virt. eigenvalues --    0.42388   0.45822   0.46984   0.49216   0.51223
 Alpha virt. eigenvalues --    0.52688   0.53124   0.53930   0.56349   0.56648
 Alpha virt. eigenvalues --    0.57956   0.58989   0.59768   0.60824   0.63414
 Alpha virt. eigenvalues --    0.63805   0.65818   0.66178   0.68994   0.70058
 Alpha virt. eigenvalues --    0.72335   0.73635   0.75032   0.76364   0.77486
 Alpha virt. eigenvalues --    0.78426   0.79843   0.80016   0.83008   0.85294
 Alpha virt. eigenvalues --    0.87520   0.88046   0.88199   0.89088   0.90763
 Alpha virt. eigenvalues --    0.91454   0.91598   0.91809   0.93428   0.95220
 Alpha virt. eigenvalues --    0.95694   0.97179   0.98435   0.99157   1.00910
 Alpha virt. eigenvalues --    1.03256   1.06551   1.10490   1.11895   1.16824
 Alpha virt. eigenvalues --    1.21057   1.23161   1.27956   1.32767   1.33356
 Alpha virt. eigenvalues --    1.34660   1.36863   1.40333   1.43648   1.44108
 Alpha virt. eigenvalues --    1.47293   1.48861   1.54572   1.56185   1.60485
 Alpha virt. eigenvalues --    1.64493   1.75986   1.80648   1.82755   1.84856
 Alpha virt. eigenvalues --    1.85793   1.86725   1.88123   1.91048   1.92160
 Alpha virt. eigenvalues --    1.96219   1.97958   2.00753   2.02389   2.02487
 Alpha virt. eigenvalues --    2.07385   2.08181   2.10490   2.18720   2.19691
 Alpha virt. eigenvalues --    2.19782   2.23128   2.27737   2.28776   2.29299
 Alpha virt. eigenvalues --    2.31512   2.34030   2.34164   2.42438   2.43149
 Alpha virt. eigenvalues --    2.45770   2.48800   2.49667   2.52249   2.52510
 Alpha virt. eigenvalues --    2.55805   2.59204   2.67962   2.81303   2.87706
 Alpha virt. eigenvalues --    2.94840   3.03528   3.11649   3.16567   4.09270
 Alpha virt. eigenvalues --    4.10992   4.15302   4.19894   4.25462   4.29323
 Alpha virt. eigenvalues --    4.31474   4.37244   4.54180   4.62246
          Condensed to atoms (all electrons):
               1          2          3          4          5          6
     1  C    5.194717   0.359957  -0.021549   0.006605  -0.000236   0.000002
     2  C    0.359957   4.689961   0.663017  -0.027380   0.002679  -0.000180
     3  C   -0.021549   0.663017   4.936703   0.403126  -0.008216   0.003451
     4  C    0.006605  -0.027380   0.403126   5.030760   0.554791  -0.026292
     5  C   -0.000236   0.002679  -0.008216   0.554791   5.041010   0.413526
     6  C    0.000002  -0.000180   0.003451  -0.026292   0.413526   4.601464
     7  C   -0.000000   0.000002  -0.000240   0.005776  -0.020048   0.645069
     8  C    0.000000  -0.000000   0.000001  -0.000252   0.005257  -0.015791
     9  C   -0.088197   0.380462  -0.050787  -0.017442   0.000828   0.000005
    10  C   -0.000000   0.000004   0.000361  -0.013217  -0.073829   0.378786
    11  H    0.363609  -0.031533  -0.001456  -0.000129   0.000005  -0.000000
    12  H    0.363619  -0.031545  -0.001459  -0.000129   0.000005  -0.000000
    13  H    0.363864  -0.029658  -0.004292   0.000007   0.000005   0.000000
    14  H   -0.014700  -0.040996   0.357479  -0.062094  -0.005209   0.000183
    15  H    0.000043  -0.005869  -0.050635   0.359747  -0.045974  -0.012843
    16  H   -0.000015   0.000498  -0.007014  -0.064839   0.363915  -0.046531
    17  H   -0.000000   0.000000  -0.000001   0.000282  -0.014820  -0.037258
    18  H    0.000000   0.000000  -0.000000   0.000003   0.000137  -0.005138
    19  H   -0.000000  -0.000000  -0.000000   0.000005  -0.000097  -0.001150
    20  H   -0.000000  -0.000000  -0.000000   0.000005  -0.000097  -0.001133
    21  H    0.005030  -0.023150  -0.008098   0.003476   0.000127   0.000006
    22  H   -0.002045  -0.030897   0.000116   0.000426  -0.000005  -0.000000
    23  H   -0.002050  -0.030899   0.000127   0.000425  -0.000005  -0.000000
    24  H   -0.000000  -0.000006  -0.000002   0.002556  -0.003707  -0.025181
    25  H    0.000000  -0.000000  -0.000004   0.000255   0.004526  -0.024597
    26  H   -0.000000  -0.000006  -0.000002   0.002558  -0.003714  -0.025173
               7          8          9         10         11         12
     1  C   -0.000000   0.000000  -0.088197  -0.000000   0.363609   0.363619
     2  C    0.000002  -0.000000   0.380462   0.000004  -0.031533  -0.031545
     3  C   -0.000240   0.000001  -0.050787   0.000361  -0.001456  -0.001459
     4  C    0.005776  -0.000252  -0.017442  -0.013217  -0.000129  -0.000129
     5  C   -0.020048   0.005257   0.000828  -0.073829   0.000005   0.000005
     6  C    0.645069  -0.015791   0.000005   0.378786  -0.000000  -0.000000
     7  C    5.046009   0.342343  -0.000000  -0.069982  -0.000000  -0.000000
     8  C    0.342343   5.148316  -0.000000  -0.017521  -0.000000  -0.000000
     9  C   -0.000000  -0.000000   5.205362  -0.000005  -0.000917  -0.000910
    10  C   -0.069982  -0.017521  -0.000005   5.239084   0.000000   0.000000
    11  H   -0.000000  -0.000000  -0.000917   0.000000   0.565715  -0.036395
    12  H   -0.000000  -0.000000  -0.000910   0.000000  -0.036395   0.565720
    13  H   -0.000000   0.000000   0.005046   0.000000  -0.026580  -0.026581
    14  H   -0.000005  -0.000000   0.007334   0.000003   0.000206   0.000205
    15  H    0.000330   0.000001   0.002238   0.006407  -0.000000  -0.000000
    16  H   -0.010442   0.000163  -0.000000   0.006279   0.000000   0.000000
    17  H    0.357174  -0.059500   0.000000   0.007418   0.000000   0.000000
    18  H   -0.033217   0.370587   0.000000   0.002001  -0.000000  -0.000000
    19  H   -0.029214   0.367818   0.000000   0.000378   0.000000  -0.000000
    20  H   -0.029199   0.367817   0.000000   0.000377  -0.000000   0.000000
    21  H   -0.000000   0.000000   0.362103  -0.000028  -0.000036  -0.000036
    22  H   -0.000000  -0.000000   0.364564   0.000000  -0.000792   0.004430
    23  H   -0.000000  -0.000000   0.364567   0.000000   0.004434  -0.000793
    24  H    0.000507   0.000445   0.000002   0.361238   0.000000  -0.000000
    25  H   -0.006206   0.002994  -0.000000   0.361651   0.000000   0.000000
    26  H    0.000509   0.000445   0.000002   0.361230  -0.000000   0.000000
              13         14         15         16         17         18
     1  C    0.363864  -0.014700   0.000043  -0.000015  -0.000000   0.000000
     2  C   -0.029658  -0.040996  -0.005869   0.000498   0.000000   0.000000
     3  C   -0.004292   0.357479  -0.050635  -0.007014  -0.000001  -0.000000
     4  C    0.000007  -0.062094   0.359747  -0.064839   0.000282   0.000003
     5  C    0.000005  -0.005209  -0.045974   0.363915  -0.014820   0.000137
     6  C    0.000000   0.000183  -0.012843  -0.046531  -0.037258  -0.005138
     7  C   -0.000000  -0.000005   0.000330  -0.010442   0.357174  -0.033217
     8  C    0.000000  -0.000000   0.000001   0.000163  -0.059500   0.370587
     9  C    0.005046   0.007334   0.002238  -0.000000   0.000000   0.000000
    10  C    0.000000   0.000003   0.006407   0.006279   0.007418   0.002001
    11  H   -0.026580   0.000206  -0.000000   0.000000   0.000000  -0.000000
    12  H   -0.026581   0.000205  -0.000000   0.000000   0.000000  -0.000000
    13  H    0.546246   0.008004   0.000007   0.000002   0.000000   0.000000
    14  H    0.008004   0.607168   0.005053   0.005919   0.000001  -0.000000
    15  H    0.000007   0.005053   0.574708   0.005790  -0.000004  -0.000001
    16  H    0.000002   0.005919   0.005790   0.598581   0.008842   0.000011
    17  H    0.000000   0.000001  -0.000004   0.008842   0.593994   0.004462
    18  H    0.000000  -0.000000  -0.000001   0.000011   0.004462   0.537412
    19  H   -0.000000   0.000000   0.000000  -0.000011  -0.000922  -0.027149
    20  H   -0.000000   0.000000   0.000000  -0.000011  -0.000939  -0.027144
    21  H   -0.000176  -0.000050   0.006037   0.000003  -0.000000   0.000000
    22  H   -0.000035  -0.000159  -0.000100   0.000000   0.000000  -0.000000
    23  H   -0.000035  -0.000159  -0.000099   0.000000   0.000000  -0.000000
    24  H   -0.000000   0.000000   0.001803  -0.000069  -0.000176  -0.000175
    25  H    0.000000   0.000000  -0.000068  -0.000128   0.000006   0.007671
    26  H   -0.000000   0.000000   0.001807  -0.000069  -0.000176  -0.000173
              19         20         21         22         23         24
     1  C   -0.000000  -0.000000   0.005030  -0.002045  -0.002050  -0.000000
     2  C   -0.000000  -0.000000  -0.023150  -0.030897  -0.030899  -0.000006
     3  C   -0.000000  -0.000000  -0.008098   0.000116   0.000127  -0.000002
     4  C    0.000005   0.000005   0.003476   0.000426   0.000425   0.002556
     5  C   -0.000097  -0.000097   0.000127  -0.000005  -0.000005  -0.003707
     6  C   -0.001150  -0.001133   0.000006  -0.000000  -0.000000  -0.025181
     7  C   -0.029214  -0.029199  -0.000000  -0.000000  -0.000000   0.000507
     8  C    0.367818   0.367817   0.000000  -0.000000  -0.000000   0.000445
     9  C    0.000000   0.000000   0.362103   0.364564   0.364567   0.000002
    10  C    0.000378   0.000377  -0.000028   0.000000   0.000000   0.361238
    11  H    0.000000  -0.000000  -0.000036  -0.000792   0.004434   0.000000
    12  H   -0.000000   0.000000  -0.000036   0.004430  -0.000793  -0.000000
    13  H   -0.000000  -0.000000  -0.000176  -0.000035  -0.000035  -0.000000
    14  H    0.000000   0.000000  -0.000050  -0.000159  -0.000159   0.000000
    15  H    0.000000   0.000000   0.006037  -0.000100  -0.000099   0.001803
    16  H   -0.000011  -0.000011   0.000003   0.000000   0.000000  -0.000069
    17  H   -0.000922  -0.000939  -0.000000   0.000000   0.000000  -0.000176
    18  H   -0.027149  -0.027144   0.000000  -0.000000  -0.000000  -0.000175
    19  H    0.556148  -0.033903  -0.000000  -0.000000   0.000000   0.000052
    20  H   -0.033903   0.556150  -0.000000   0.000000  -0.000000  -0.000027
    21  H   -0.000000  -0.000000   0.537709  -0.027211  -0.027211  -0.000005
    22  H   -0.000000   0.000000  -0.027211   0.559367  -0.034517  -0.000000
    23  H    0.000000  -0.000000  -0.027211  -0.034517   0.559374   0.000001
    24  H    0.000052  -0.000027  -0.000005  -0.000000   0.000001   0.558577
    25  H   -0.000184  -0.000183   0.000000   0.000000   0.000000  -0.027629
    26  H   -0.000027   0.000052  -0.000005   0.000001  -0.000000  -0.035735
              25         26
     1  C    0.000000  -0.000000
     2  C   -0.000000  -0.000006
     3  C   -0.000004  -0.000002
     4  C    0.000255   0.002558
     5  C    0.004526  -0.003714
     6  C   -0.024597  -0.025173
     7  C   -0.006206   0.000509
     8  C    0.002994   0.000445
     9  C   -0.000000   0.000002
    10  C    0.361651   0.361230
    11  H    0.000000  -0.000000
    12  H    0.000000   0.000000
    13  H    0.000000  -0.000000
    14  H    0.000000   0.000000
    15  H   -0.000068   0.001807
    16  H   -0.000128  -0.000069
    17  H    0.000006  -0.000176
    18  H    0.007671  -0.000173
    19  H   -0.000184  -0.000027
    20  H   -0.000183   0.000052
    21  H    0.000000  -0.000005
    22  H    0.000000   0.000001
    23  H    0.000000  -0.000000
    24  H   -0.027629  -0.035735
    25  H    0.541075  -0.027634
    26  H   -0.027634   0.558582
 Mulliken charges:
               1
     1  C   -0.528654
     2  C    0.155537
     3  C   -0.210626
     4  C   -0.159028
     5  C   -0.210852
     6  C    0.178776
     7  C   -0.199166
     8  C   -0.513124
     9  C   -0.534256
    10  C   -0.550636
    11  H    0.163869
    12  H    0.163868
    13  H    0.164177
    14  H    0.131815
    15  H    0.151621
    16  H    0.139125
    17  H    0.141616
    18  H    0.170716
    19  H    0.168256
    20  H    0.168236
    21  H    0.171517
    22  H    0.166856
    23  H    0.166841
    24  H    0.167531
    25  H    0.168455
    26  H    0.167530
 Sum of Mulliken charges =  -0.00000
 Mulliken charges with hydrogens summed into heavy atoms:
               1
     1  C   -0.036741
     2  C    0.155537
     3  C   -0.078812
     4  C   -0.007407
     5  C   -0.071727
     6  C    0.178776
     7  C   -0.057549
     8  C   -0.005915
     9  C   -0.029042
    10  C   -0.047120
 Electronic spatial extent (au):  <R**2>=           2877.7315
 Charge=             -0.0000 electrons
 Dipole moment (field-independent basis, Debye):
    X=              0.1400    Y=              0.5232    Z=              0.0001  Tot=              0.5416
 Quadrupole moment (field-independent basis, Debye-Ang):
   XX=            -52.4207   YY=            -58.8742   ZZ=            -65.9462
   XY=              0.9389   XZ=              0.0011   YZ=              0.0003
 Traceless Quadrupole moment (field-independent basis, Debye-Ang):
   XX=              6.6597   YY=              0.2062   ZZ=             -6.8659
   XY=              0.9389   XZ=              0.0011   YZ=              0.0003
 Octapole moment (field-independent basis, Debye-Ang**2):
  XXX=             -0.6822  YYY=             -3.0368  ZZZ=              0.0009  XYY=             -1.8482
  XXY=              0.6210  XXZ=              0.0034  XZZ=              1.9079  YZZ=              2.4981
  YYZ=              0.0011  XYZ=              0.0033
 Hexadecapole moment (field-independent basis, Debye-Ang**3):
 XXXX=          -3190.1810 YYYY=           -436.1925 ZZZZ=            -94.8278 XXXY=             22.6120
 XXXZ=              0.0001 YYYX=             -1.0005 YYYZ=              0.0010 ZZZX=              0.0185
 ZZZY=              0.0001 XXYY=           -623.4306 XXZZ=           -582.7547 YYZZ=            -90.3377
 XXYZ=             -0.0082 YYXZ=             -0.0132 ZZXY=              4.5258
 N-N= 4.785987318692D+02 E-N=-1.860281512575D+03  KE= 3.867290344851D+02
 D1PCM: PCM CHGder 1st derivatives, ID1Alg=3 FixD1E=F DoIter=F DoCFld=F I1PDM=0.
 Calling FoFJK, ICntrl=      2127 FMM=F ISym2X=0 I1Cent= 0 IOpClX= 0 NMat=1 NMatS=1 NMatT=0.
 ***** Axes restored to original set *****
 -------------------------------------------------------------------
 Center     Atomic                   Forces (Hartrees/Bohr)
 Number     Number              X              Y              Z
 -------------------------------------------------------------------
      1        6          -0.000591389   -0.000104473   -0.000000849
      2        6           0.002489749    0.001577701    0.000003546
      3        6          -0.001014702   -0.001876649   -0.000006806
      4        6           0.000718141    0.002051643    0.000000510
      5        6          -0.000705658   -0.001809186   -0.000004176
      6        6           0.000335668    0.002343103    0.000001232
      7        6          -0.001875422   -0.001378410   -0.000002893
      8        6           0.001042785    0.000837382   -0.000000534
      9        6          -0.000457232   -0.000304353    0.000007579
     10        6           0.000027458   -0.000596971    0.000003829
     11        1           0.000053896    0.000308767   -0.000051631
     12        1           0.000053565    0.000311301    0.000053070
     13        1          -0.000125182   -0.000524244   -0.000000859
     14        1           0.000093987   -0.000483498    0.000000942
     15        1           0.000028703    0.000469256    0.000001399
     16        1          -0.000062844   -0.000475256    0.000005105
     17        1          -0.000047286   -0.000416840   -0.000002090
     18        1          -0.000156151    0.000323394   -0.000001653
     19        1          -0.000034180   -0.000495512   -0.000159197
     20        1          -0.000037778   -0.000494862    0.000162311
     21        1          -0.000313840    0.000364934    0.000000303
     22        1           0.000239097   -0.000203558    0.000067825
     23        1           0.000241659   -0.000204792   -0.000075900
     24        1           0.000249010    0.000320471   -0.000077455
     25        1          -0.000402231    0.000142267   -0.000000815
     26        1           0.000250178    0.000318385    0.000077209
 -------------------------------------------------------------------
 Cartesian Forces:  Max     0.002489749 RMS     0.000703148

 GradGradGradGradGradGradGradGradGradGradGradGradGradGradGradGradGradGrad
 Berny optimization.
 FormGI is forming the generalized inverse of G from B-inverse, IUseBI=4.
 Internal  Forces:  Max     0.001943415 RMS     0.000433050
 Search for a local minimum.
 Step number   1 out of a maximum of  121
 All quantities printed in internal units (Hartrees-Bohrs-Radians)
 Mixed Optimization -- En-DIIS/RFO-DIIS
 Second derivative matrix not updated -- first step.
 ITU=  0
     Eigenvalues ---    0.00615   0.00665   0.00669   0.00772   0.01241
     Eigenvalues ---    0.01278   0.01412   0.01431   0.01566   0.02003
     Eigenvalues ---    0.02071   0.02087   0.02698   0.02710   0.02718
     Eigenvalues ---    0.06839   0.06893   0.06925   0.06986   0.07191
     Eigenvalues ---    0.07194   0.07275   0.07314   0.16000   0.16000
     Eigenvalues ---    0.16000   0.16000   0.16000   0.16000   0.16000
     Eigenvalues ---    0.16000   0.16000   0.16000   0.16000   0.16000
     Eigenvalues ---    0.16000   0.16000   0.16000   0.16000   0.22000
     Eigenvalues ---    0.22000   0.22000   0.22000   0.25000   0.25000
     Eigenvalues ---    0.25000   0.25000   0.31209   0.31587   0.31621
     Eigenvalues ---    0.32424   0.33702   0.33702   0.33753   0.33755
     Eigenvalues ---    0.33762   0.33765   0.33970   0.33970   0.34297
     Eigenvalues ---    0.34492   0.34565   0.34653   0.34677   0.34678
     Eigenvalues ---    0.34681   0.35170   0.36807   0.38277   0.54185
     Eigenvalues ---    0.54382   0.54515
 RFO step:  Lambda=-6.50593541D-05 EMin= 6.14976715D-03
 Linear search not attempted -- first point.
 Iteration  1 RMS(Cart)=  0.00560421 RMS(Int)=  0.00001001
 Iteration  2 RMS(Cart)=  0.00001623 RMS(Int)=  0.00000254
 Iteration  3 RMS(Cart)=  0.00000000 RMS(Int)=  0.00000254
 Variable       Old X    -DE/DX   Delta X   Delta X   Delta X     New X
                                 (Linear)    (Quad)   (Total)
    R1        2.84906  -0.00049   0.00000  -0.00154  -0.00154   2.84751
    R2        2.07836   0.00013   0.00000   0.00038   0.00038   2.07873
    R3        2.07836   0.00013   0.00000   0.00038   0.00038   2.07874
    R4        2.06831   0.00054   0.00000   0.00157   0.00157   2.06989
    R5        2.55565   0.00194   0.00000   0.00356   0.00356   2.55922
    R6        2.84842  -0.00040   0.00000  -0.00126  -0.00126   2.84716
    R7        2.73963   0.00114   0.00000   0.00297   0.00297   2.74260
    R8        2.06203   0.00048   0.00000   0.00137   0.00137   2.06341
    R9        2.55864   0.00190   0.00000   0.00351   0.00351   2.56214
   R10        2.05399   0.00047   0.00000   0.00133   0.00133   2.05533
   R11        2.76139   0.00097   0.00000   0.00264   0.00264   2.76402
   R12        2.06196   0.00047   0.00000   0.00137   0.00137   2.06332
   R13        2.55685   0.00186   0.00000   0.00341   0.00341   2.56026
   R14        2.85616   0.00018   0.00000   0.00057   0.00057   2.85673
   R15        2.83375  -0.00075   0.00000  -0.00230  -0.00230   2.83145
   R16        2.06200   0.00040   0.00000   0.00116   0.00116   2.06316
   R17        2.06508   0.00034   0.00000   0.00100   0.00100   2.06608
   R18        2.07733   0.00033   0.00000   0.00098   0.00098   2.07831
   R19        2.07729   0.00034   0.00000   0.00099   0.00099   2.07828
   R20        2.06386   0.00047   0.00000   0.00135   0.00135   2.06521
   R21        2.07748   0.00013   0.00000   0.00040   0.00040   2.07788
   R22        2.07745   0.00014   0.00000   0.00042   0.00042   2.07787
   R23        2.07381   0.00030   0.00000   0.00088   0.00088   2.07468
   R24        2.06241   0.00043   0.00000   0.00123   0.00123   2.06364
   R25        2.07381   0.00030   0.00000   0.00088   0.00088   2.07468
    A1        1.94012  -0.00029   0.00000  -0.00219  -0.00220   1.93792
    A2        1.94015  -0.00029   0.00000  -0.00222  -0.00222   1.93793
    A3        1.95483   0.00020   0.00000   0.00204   0.00204   1.95687
    A4        1.85392   0.00005   0.00000  -0.00125  -0.00125   1.85267
    A5        1.88537   0.00017   0.00000   0.00182   0.00182   1.88719
    A6        1.88535   0.00018   0.00000   0.00183   0.00183   1.88718
    A7        2.10607  -0.00034   0.00000  -0.00135  -0.00135   2.10472
    A8        2.00160  -0.00000   0.00000  -0.00002  -0.00002   2.00158
    A9        2.17552   0.00034   0.00000   0.00137   0.00137   2.17689
   A10        2.23280  -0.00046   0.00000  -0.00211  -0.00211   2.23069
   A11        2.04465   0.00010   0.00000   0.00024   0.00024   2.04490
   A12        2.00573   0.00036   0.00000   0.00186   0.00186   2.00759
   A13        2.14917  -0.00071   0.00000  -0.00321  -0.00321   2.14596
   A14        2.05643   0.00033   0.00000   0.00147   0.00147   2.05789
   A15        2.07759   0.00038   0.00000   0.00175   0.00175   2.07933
   A16        2.21198  -0.00017   0.00000  -0.00076  -0.00076   2.21122
   A17        2.05717   0.00015   0.00000   0.00080   0.00080   2.05797
   A18        2.01403   0.00002   0.00000  -0.00004  -0.00004   2.01399
   A19        2.06758  -0.00093   0.00000  -0.00373  -0.00373   2.06385
   A20        2.05438   0.00039   0.00000   0.00156   0.00156   2.05594
   A21        2.16123   0.00054   0.00000   0.00217   0.00217   2.16340
   A22        2.25123  -0.00004   0.00000  -0.00018  -0.00018   2.25105
   A23        2.03663   0.00014   0.00000   0.00085   0.00085   2.03748
   A24        1.99532  -0.00010   0.00000  -0.00066  -0.00066   1.99466
   A25        1.98073   0.00041   0.00000   0.00374   0.00374   1.98447
   A26        1.93277  -0.00037   0.00000  -0.00291  -0.00292   1.92985
   A27        1.93268  -0.00037   0.00000  -0.00288  -0.00289   1.92980
   A28        1.87908   0.00018   0.00000   0.00220   0.00220   1.88129
   A29        1.87912   0.00018   0.00000   0.00221   0.00221   1.88133
   A30        1.85390  -0.00002   0.00000  -0.00251  -0.00253   1.85137
   A31        1.98047   0.00038   0.00000   0.00323   0.00323   1.98369
   A32        1.93100  -0.00034   0.00000  -0.00254  -0.00254   1.92846
   A33        1.93108  -0.00035   0.00000  -0.00259  -0.00260   1.92848
   A34        1.88070   0.00012   0.00000   0.00154   0.00154   1.88224
   A35        1.88073   0.00012   0.00000   0.00153   0.00153   1.88226
   A36        1.85452   0.00007   0.00000  -0.00127  -0.00128   1.85324
   A37        1.93466   0.00024   0.00000   0.00137   0.00136   1.93603
   A38        1.96554  -0.00006   0.00000  -0.00008  -0.00008   1.96545
   A39        1.93473   0.00024   0.00000   0.00134   0.00134   1.93607
   A40        1.87993  -0.00005   0.00000  -0.00004  -0.00004   1.87989
   A41        1.86497  -0.00035   0.00000  -0.00278  -0.00278   1.86219
   A42        1.87992  -0.00005   0.00000  -0.00003  -0.00003   1.87989
    D1        2.11092   0.00016   0.00000   0.00216   0.00216   2.11307
    D2       -1.03079   0.00016   0.00000   0.00222   0.00222  -1.02857
    D3       -2.11097  -0.00016   0.00000  -0.00225  -0.00224  -2.11322
    D4        1.03051  -0.00016   0.00000  -0.00219  -0.00219   1.02832
    D5       -0.00003  -0.00000   0.00000  -0.00004  -0.00004  -0.00007
    D6        3.14145   0.00000   0.00000   0.00001   0.00001   3.14147
    D7       -3.14155  -0.00000   0.00000  -0.00004  -0.00004   3.14159
    D8       -0.00000  -0.00000   0.00000  -0.00000  -0.00000  -0.00000
    D9        0.00016  -0.00000   0.00000  -0.00011  -0.00011   0.00006
   D10       -3.14147  -0.00000   0.00000  -0.00006  -0.00006  -3.14153
   D11        3.14102  -0.00000   0.00000   0.00008   0.00008   3.14109
   D12       -1.02589   0.00017   0.00000   0.00247   0.00247  -1.02342
   D13        1.02464  -0.00017   0.00000  -0.00228  -0.00227   1.02237
   D14       -0.00070   0.00000   0.00000   0.00013   0.00013  -0.00056
   D15        2.11559   0.00017   0.00000   0.00253   0.00253   2.11812
   D16       -2.11707  -0.00017   0.00000  -0.00222  -0.00221  -2.11928
   D17       -3.14140  -0.00000   0.00000  -0.00010  -0.00010  -3.14150
   D18        0.00018  -0.00000   0.00000  -0.00007  -0.00007   0.00011
   D19        0.00023  -0.00000   0.00000  -0.00015  -0.00015   0.00009
   D20       -3.14138  -0.00000   0.00000  -0.00012  -0.00012  -3.14149
   D21        3.14156   0.00000   0.00000   0.00001   0.00001   3.14157
   D22       -0.00005   0.00000   0.00000   0.00004   0.00004  -0.00001
   D23       -0.00001  -0.00000   0.00000  -0.00002  -0.00002  -0.00003
   D24        3.14156   0.00000   0.00000   0.00001   0.00001   3.14157
   D25       -3.14123  -0.00000   0.00000  -0.00029  -0.00029  -3.14152
   D26        0.00039  -0.00000   0.00000  -0.00029  -0.00029   0.00010
   D27        0.00038  -0.00000   0.00000  -0.00032  -0.00032   0.00006
   D28       -3.14119  -0.00000   0.00000  -0.00032  -0.00032  -3.14151
   D29        3.14157   0.00000   0.00000   0.00005   0.00005  -3.14156
   D30       -0.00006   0.00000   0.00000   0.00001   0.00001  -0.00005
   D31       -0.00004   0.00000   0.00000   0.00005   0.00005   0.00000
   D32        3.14151   0.00000   0.00000   0.00001   0.00001   3.14152
   D33        1.03407  -0.00006   0.00000  -0.00086  -0.00086   1.03321
   D34       -3.14159  -0.00000   0.00000   0.00000   0.00000  -3.14158
   D35       -1.03403   0.00006   0.00000   0.00087   0.00087  -1.03317
   D36       -2.10749  -0.00006   0.00000  -0.00086  -0.00086  -2.10835
   D37        0.00003  -0.00000   0.00000   0.00000   0.00000   0.00003
   D38        2.10758   0.00006   0.00000   0.00087   0.00087   2.10845
   D39       -0.00127   0.00000   0.00000   0.00016   0.00016  -0.00111
   D40        2.11440   0.00025   0.00000   0.00351   0.00351   2.11791
   D41       -2.11692  -0.00025   0.00000  -0.00322  -0.00321  -2.12014
   D42        3.14036   0.00000   0.00000   0.00020   0.00020   3.14056
   D43       -1.02716   0.00025   0.00000   0.00355   0.00355  -1.02361
   D44        1.02471  -0.00025   0.00000  -0.00318  -0.00317   1.02153
         Item               Value     Threshold  Converged?
 Maximum Force            0.001943     0.000450     NO 
 RMS     Force            0.000433     0.000300     NO 
 Maximum Displacement     0.019438     0.001800     NO 
 RMS     Displacement     0.005608     0.001200     NO 
 Predicted change in Energy=-3.251827D-05
 GradGradGradGradGradGradGradGradGradGradGradGradGradGradGradGradGradGrad

                          Input orientation:                          
 ---------------------------------------------------------------------
 Center     Atomic      Atomic             Coordinates (Angstroms)
 Number     Number       Type             X           Y           Z
 ---------------------------------------------------------------------
      1          6           0        4.185137   -0.987596   -0.000025
      2          6           0        2.967405   -0.100076    0.000006
      3          6           0        1.723786   -0.636254   -0.000077
      4          6           0        0.452810    0.064427   -0.000057
      5          6           0       -0.742333   -0.575809   -0.000043
      6          6           0       -2.066564    0.045306    0.000000
      7          6           0       -3.153940   -0.762892    0.000096
      8          6           0       -4.605191   -0.390206    0.000124
      9          6           0        3.265303    1.376833    0.000209
     10          6           0       -2.136941    1.555384   -0.000095
     11          1           0        4.816338   -0.791866   -0.879409
     12          1           0        4.816361   -0.791913    0.879354
     13          1           0        3.920792   -2.050557   -0.000047
     14          1           0        1.650640   -1.725708   -0.000166
     15          1           0        0.471013    1.151907   -0.000066
     16          1           0       -0.737287   -1.667661   -0.000057
     17          1           0       -2.966550   -1.838469    0.000087
     18          1           0       -4.781864    0.688745    0.001167
     19          1           0       -5.112766   -0.812958   -0.879191
     20          1           0       -5.113132   -0.814756    0.878343
     21          1           0        2.370751    2.004627   -0.000274
     22          1           0        3.866830    1.648079    0.879775
     23          1           0        3.867845    1.648138   -0.878635
     24          1           0       -1.630724    1.971470   -0.880973
     25          1           0       -3.163483    1.927874   -0.000045
     26          1           0       -1.630579    1.971632    0.880623
 ---------------------------------------------------------------------
                    Distance matrix (angstroms):
                    1          2          3          4          5
     1  C    0.000000
     2  C    1.506839   0.000000
     3  C    2.486301   1.354280   0.000000
     4  C    3.877760   2.519970   1.451321   0.000000
     5  C    4.944647   3.740117   2.466860   1.355828   0.000000
     6  C    6.336454   5.036067   3.851139   2.519446   1.462659
     7  C    7.342516   6.157125   4.879369   3.700419   2.418852
     8  C    8.810604   7.578151   6.333757   5.078391   3.867314
     9  C    2.537050   1.506653   2.535507   3.103631   4.458022
    10  C    6.814354   5.366088   4.439424   2.988271   2.546942
    11  H    1.100019   2.161134   3.218900   4.532867   5.631944
    12  H    1.100020   2.161141   3.218952   4.532909   5.631974
    13  H    1.095337   2.171019   2.612870   4.062027   4.890769
    14  H    2.639789   2.092020   1.091907   2.153922   2.654918
    15  H    4.286279   2.792747   2.183337   1.087632   2.111211
    16  H    4.969180   4.022694   2.668460   2.101537   1.091864
    17  H    7.202125   6.183350   4.841959   3.913187   2.557626
    18  H    9.122348   7.789313   6.639209   5.271772   4.232836
    19  H    9.341008   8.159065   6.895107   5.702483   4.464283
    20  H    9.341264   8.159493   6.895428   5.703004   4.464588
    21  H    3.499343   2.187641   2.718973   2.728163   4.043506
    22  H    2.796811   2.153835   3.253453   3.864918   5.192701
    23  H    2.796377   2.153846   3.253813   3.865554   5.193419
    24  H    6.584556   5.119591   4.339232   2.958705   2.837940
    25  H    7.905832   6.457582   5.519071   4.068170   3.482871
    26  H    6.584461   5.119464   4.339178   2.958638   2.837958
                    6          7          8          9         10
     6  C    0.000000
     7  C    1.354833   0.000000
     8  C    2.575713   1.498340   0.000000
     9  C    5.495613   6.766469   8.066418   0.000000
    10  C    1.511716   2.531539   3.142861   5.405194   0.000000
    11  H    6.989174   8.018709   9.471014   2.807614   7.391270
    12  H    6.989196   8.018706   9.471011   2.807514   7.391323
    13  H    6.343585   7.190961   8.686147   3.489508   7.049748
    14  H    4.117535   4.900103   6.396795   3.497556   5.011121
    15  H    2.768368   4.099602   5.305276   2.803328   2.638981
    16  H    2.168233   2.580469   4.073398   5.028884   3.513837
    17  H    2.087722   1.091779   2.186918   7.012428   3.493778
    18  H    2.790496   2.181143   1.093320   8.076531   2.783286
    19  H    3.284653   2.147708   1.099794   8.704055   3.903509
    20  H    3.285236   2.147660   1.099780   8.704732   3.904732
    21  H    4.850639   6.179108   7.375567   1.092863   4.530023
    22  H    6.208707   7.475147   8.758055   1.099566   6.068610
    23  H    6.209531   7.476008   8.758961   1.099559   6.069423
    24  H    2.162447   3.251647   3.898885   5.010105   1.097875
    25  H    2.178828   2.690783   2.729838   6.452359   1.092033
    26  H    2.162478   3.251704   3.898958   5.009848   1.097876
                   11         12         13         14         15
    11  H    0.000000
    12  H    1.758763   0.000000
    13  H    1.777521   1.777519   0.000000
    14  H    3.415666   3.415746   2.293277   0.000000
    15  H    4.840800   4.840854   4.707096   3.110014   0.000000
    16  H    5.690609   5.690633   4.673790   2.388633   3.067565
    17  H    7.902040   7.902031   6.890607   4.618566   4.556225
    18  H    9.751569   9.751384   9.123596   6.870713   5.273257
    19  H    9.929127  10.083675   9.160225   6.881095   5.984325
    20  H   10.083878   9.929520   9.160271   6.881150   5.985152
    21  H    3.817611   3.817773   4.341330   3.799205   2.082339
    22  H    3.154303   2.618239   3.802224   4.131372   3.542863
    23  H    2.617873   3.153420   3.801981   4.131651   3.543529
    24  H    7.014316   7.231870   6.911734   5.021185   2.421772
    25  H    8.476309   8.476350   8.124954   6.043546   3.716408
    26  H    7.231692   7.014287   6.911679   5.021206   2.421622
                   16         17         18         19         20
    16  H    0.000000
    17  H    2.235797   0.000000
    18  H    4.680946   3.111619   0.000000
    19  H    4.544030   2.535951   1.771902   0.000000
    20  H    4.543903   2.535180   1.771918   1.757535   0.000000
    21  H    4.810987   6.576942   7.272650   8.044520   8.045458
    22  H    5.741614   7.721719   8.745980   9.475432   9.311567
    23  H    5.742270   7.722534   8.747111   9.311733   9.476855
    24  H    3.849353   4.132352   3.514718   4.458437   4.794311
    25  H    4.337546   3.771488   2.038284   3.476314   3.477747
    26  H    3.849418   4.132436   3.514234   4.793382   4.460061
                   21         22         23         24         25
    21  H    0.000000
    22  H    1.771966   0.000000
    23  H    1.771975   1.758411   0.000000
    24  H    4.097381   5.781687   5.508067   0.000000
    25  H    5.534766   7.090674   7.091526   1.768413   0.000000
    26  H    4.097281   5.506922   5.782067   1.761596   1.768413
                   26
    26  H    0.000000
 Stoichiometry    C10H16
 Framework group  C1[X(C10H16)]
 Deg. of freedom    72
 Full point group                 C1      NOp   1
 Largest Abelian subgroup         C1      NOp   1
 Largest concise Abelian subgroup C1      NOp   1
                         Standard orientation:                         
 ---------------------------------------------------------------------
 Center     Atomic      Atomic             Coordinates (Angstroms)
 Number     Number       Type             X           Y           Z
 ---------------------------------------------------------------------
      1          6           0        4.185425   -0.988137   -0.000042
      2          6           0        2.967658   -0.100664   -0.000011
      3          6           0        1.724060   -0.636889   -0.000094
      4          6           0        0.453057    0.063743   -0.000074
      5          6           0       -0.742061   -0.576538   -0.000061
      6          6           0       -2.066316    0.044526   -0.000017
      7          6           0       -3.153661   -0.763714    0.000079
      8          6           0       -4.604926   -0.391083    0.000106
      9          6           0        3.265500    1.376257    0.000192
     10          6           0       -2.136751    1.554600   -0.000113
     11          1           0        4.816618   -0.792383   -0.879426
     12          1           0        4.816642   -0.792430    0.879337
     13          1           0        3.921121   -2.051108   -0.000064
     14          1           0        1.650956   -1.726346   -0.000183
     15          1           0        0.471219    1.151224   -0.000083
     16          1           0       -0.736973   -1.668391   -0.000074
     17          1           0       -2.966229   -1.839284    0.000070
     18          1           0       -4.781640    0.687860    0.001150
     19          1           0       -5.112485   -0.813855   -0.879208
     20          1           0       -5.112851   -0.815653    0.878326
     21          1           0        2.370924    2.004017   -0.000291
     22          1           0        3.867016    1.647526    0.879758
     23          1           0        3.868032    1.647585   -0.878652
     24          1           0       -1.630549    1.970707   -0.880990
     25          1           0       -3.163307    1.927052   -0.000063
     26          1           0       -1.630405    1.970868    0.880606
 ---------------------------------------------------------------------
 Rotational constants (GHZ):           3.9954958           0.4296334           0.3916708
 Standard basis: 6-31G(d) (6D, 7F)
 There are   182 symmetry adapted cartesian basis functions of A   symmetry.
 There are   182 symmetry adapted basis functions of A   symmetry.
   182 basis functions,   344 primitive gaussians,   182 cartesian basis functions
    38 alpha electrons       38 beta electrons
       nuclear repulsion energy       478.3346370848 Hartrees.
 NAtoms=   26 NActive=   26 NUniq=   26 SFac= 1.00D+00 NAtFMM=   60 NAOKFM=F Big=F
 Integral buffers will be    131072 words long.
 Raffenetti 2 integral format.
 Two-electron integral symmetry is turned on.
 ------------------------------------------------------------------------------
 Polarizable Continuum Model (PCM)
 =================================
 Model                : PCM.
 Atomic radii         : SMD-Coulomb.
 Polarization charges : Total charges.
 Charge compensation  : None.
 Solution method      : On-the-fly selection.
 Cavity type          : VdW (van der Waals Surface) (Alpha=1.000).
 Cavity algorithm     : GePol (No added spheres)
                        Default sphere list used, NSphG=   26.
                        Lebedev-Laikov grids with approx.  5.0 points / Ang**2.
                        Smoothing algorithm: York/Karplus (Gamma=1.0000).
                        Polarization charges: spherical gaussians, with
                                              point-specific exponents (IZeta= 3).
                        Self-potential: point-specific (ISelfS= 7).
                        Self-field    : sphere-specific E.n sum rule (ISelfD= 2).
 1st derivatives      : Analytical E(r).r(x)/FMM algorithm (CHGder, D1EAlg=3).
                        Cavity 1st derivative terms included.
 Solvent              : Ethanol, Eps=  24.852000 Eps(inf)=   1.852593
 ------------------------------------------------------------------------------
 ------------------------------------------------------------------------------
 Atomic radii for non-electrostatic terms: SMD-CDS.
 ------------------------------------------------------------------------------
 Nuclear repulsion after PCM non-electrostatic terms =      478.3329226722 Hartrees.
 One-electron integrals computed using PRISM.
 NBasis=   182 RedAO= T EigKep=  1.48D-03  NBF=   182
 NBsUse=   182 1.00D-06 EigRej= -1.00D+00 NBFU=   182
 Initial guess from the checkpoint file:  "B2.chk"
 B after Tr=     0.000000    0.000000   -0.000000
         Rot=    1.000000   -0.000006   -0.000000    0.000049 Ang=  -0.01 deg.
 Requested convergence on RMS density matrix=1.00D-08 within 128 cycles.
 Requested convergence on MAX density matrix=1.00D-06.
 Requested convergence on             energy=1.00D-06.
 No special actions if energy rises.
 Inv3:  Mode=1 IEnd=    11197872.
 Iteration    1 A*A^-1 deviation from unit magnitude is 2.89D-15 for    587.
 Iteration    1 A*A^-1 deviation from orthogonality  is 2.01D-15 for   1048    127.
 Iteration    1 A^-1*A deviation from unit magnitude is 3.33D-15 for    587.
 Iteration    1 A^-1*A deviation from orthogonality  is 2.71D-15 for   1143    123.
 Error on total polarization charges =  0.04860
 SCF Done:  E(RB3LYP) =  -390.678992729     A.U. after    8 cycles
            NFock=  8  Conv=0.71D-08     -V/T= 2.0103
 SMD-CDS (non-electrostatic) energy       (kcal/mol) =      -1.08
 (included in total energy above)
 D1PCM: PCM CHGder 1st derivatives, ID1Alg=3 FixD1E=F DoIter=F DoCFld=F I1PDM=0.
 Calling FoFJK, ICntrl=      2127 FMM=F ISym2X=0 I1Cent= 0 IOpClX= 0 NMat=1 NMatS=1 NMatT=0.
 ***** Axes restored to original set *****
 -------------------------------------------------------------------
 Center     Atomic                   Forces (Hartrees/Bohr)
 Number     Number              X              Y              Z
 -------------------------------------------------------------------
      1        6          -0.000109143   -0.000136000    0.000000596
      2        6          -0.000049713    0.000242727    0.000000285
      3        6          -0.000090912   -0.000372986   -0.000001601
      4        6          -0.000017832    0.000324810   -0.000001751
      5        6           0.000075089   -0.000309257    0.000000103
      6        6           0.000008964    0.000447724    0.000000985
      7        6          -0.000000515   -0.000071691   -0.000002463
      8        6           0.000190768    0.000267665    0.000000553
      9        6          -0.000171751   -0.000089741    0.000002061
     10        6          -0.000060540   -0.000419758    0.000001306
     11        1           0.000062795    0.000015406   -0.000008457
     12        1           0.000062417    0.000015814    0.000008481
     13        1           0.000012555    0.000095551   -0.000000135
     14        1           0.000028251    0.000114178    0.000000392
     15        1          -0.000019628   -0.000085115    0.000001781
     16        1           0.000018254    0.000114312    0.000001270
     17        1           0.000002153    0.000085559   -0.000000967
     18        1           0.000038695   -0.000057704   -0.000001081
     19        1          -0.000073751   -0.000081980   -0.000007533
     20        1          -0.000074827   -0.000079676    0.000008982
     21        1           0.000065522   -0.000040822    0.000000036
     22        1           0.000049581    0.000004402    0.000012121
     23        1           0.000048659    0.000004184   -0.000014345
     24        1           0.000034519    0.000021210   -0.000000903
     25        1          -0.000065257   -0.000028292   -0.000000511
     26        1           0.000035650    0.000019479    0.000000795
 -------------------------------------------------------------------
 Cartesian Forces:  Max     0.000447724 RMS     0.000117995

 GradGradGradGradGradGradGradGradGradGradGradGradGradGradGradGradGradGrad
 Berny optimization.
 Using GEDIIS/GDIIS optimizer.
 FormGI is forming the generalized inverse of G from B-inverse, IUseBI=4.
 Internal  Forces:  Max     0.000404084 RMS     0.000065568
 Search for a local minimum.
 Step number   2 out of a maximum of  121
 All quantities printed in internal units (Hartrees-Bohrs-Radians)
 Mixed Optimization -- En-DIIS/RFO-DIIS
 Swapping is turned off.
 Update second derivatives using D2CorX and points    1    2
 DE= -3.31D-05 DEPred=-3.25D-05 R= 1.02D+00
 TightC=F SS=  1.41D+00  RLast= 1.82D-02 DXNew= 5.0454D-01 5.4633D-02
 Trust test= 1.02D+00 RLast= 1.82D-02 DXMaxT set to 3.00D-01
 ITU=  1  0
     Eigenvalues ---    0.00615   0.00665   0.00669   0.00772   0.01241
     Eigenvalues ---    0.01278   0.01411   0.01431   0.01566   0.02004
     Eigenvalues ---    0.02072   0.02086   0.02698   0.02710   0.02718
     Eigenvalues ---    0.06820   0.06869   0.06916   0.06970   0.06974
     Eigenvalues ---    0.07186   0.07246   0.07321   0.15793   0.16000
     Eigenvalues ---    0.16000   0.16000   0.16000   0.16000   0.16000
     Eigenvalues ---    0.16000   0.16000   0.16000   0.16000   0.16000
     Eigenvalues ---    0.16000   0.16000   0.16000   0.16293   0.20964
     Eigenvalues ---    0.22000   0.22000   0.22069   0.24700   0.25000
     Eigenvalues ---    0.25000   0.25415   0.30945   0.31581   0.31736
     Eigenvalues ---    0.32431   0.33594   0.33702   0.33718   0.33754
     Eigenvalues ---    0.33757   0.33764   0.33957   0.33970   0.34347
     Eigenvalues ---    0.34506   0.34588   0.34611   0.34678   0.34680
     Eigenvalues ---    0.35039   0.35668   0.37013   0.38593   0.54259
     Eigenvalues ---    0.54376   0.56262
 En-DIIS/RFO-DIIS/Sim-DIIS IScMMF=       -3 using points:     2    1
 RFO step:  Lambda=-1.93555762D-06.
 DidBck=F Rises=F RFO-DIIS coefs:    1.08990   -0.08990
 Iteration  1 RMS(Cart)=  0.00067963 RMS(Int)=  0.00000029
 Iteration  2 RMS(Cart)=  0.00000029 RMS(Int)=  0.00000024
 Variable       Old X    -DE/DX   Delta X   Delta X   Delta X     New X
                                 (Linear)    (Quad)   (Total)
    R1        2.84751   0.00003  -0.00014   0.00019   0.00005   2.84756
    R2        2.07873   0.00005   0.00003   0.00011   0.00015   2.07888
    R3        2.07874   0.00005   0.00003   0.00011   0.00015   2.07888
    R4        2.06989  -0.00010   0.00014  -0.00038  -0.00024   2.06965
    R5        2.55922   0.00002   0.00032  -0.00018   0.00014   2.55936
    R6        2.84716  -0.00012  -0.00011  -0.00032  -0.00043   2.84673
    R7        2.74260  -0.00001   0.00027  -0.00020   0.00006   2.74266
    R8        2.06341  -0.00012   0.00012  -0.00042  -0.00030   2.06311
    R9        2.56214  -0.00007   0.00032  -0.00035  -0.00003   2.56211
   R10        2.05533  -0.00009   0.00012  -0.00033  -0.00021   2.05512
   R11        2.76402   0.00001   0.00024  -0.00013   0.00011   2.76413
   R12        2.06332  -0.00011   0.00012  -0.00042  -0.00030   2.06303
   R13        2.56026  -0.00010   0.00031  -0.00040  -0.00009   2.56017
   R14        2.85673  -0.00040   0.00005  -0.00135  -0.00130   2.85543
   R15        2.83145  -0.00007  -0.00021  -0.00007  -0.00028   2.83118
   R16        2.06316  -0.00008   0.00010  -0.00032  -0.00021   2.06295
   R17        2.06608  -0.00006   0.00009  -0.00025  -0.00016   2.06592
   R18        2.07831   0.00007   0.00009   0.00016   0.00024   2.07855
   R19        2.07828   0.00007   0.00009   0.00016   0.00025   2.07853
   R20        2.06521  -0.00008   0.00012  -0.00031  -0.00019   2.06502
   R21        2.07788   0.00004   0.00004   0.00009   0.00013   2.07800
   R22        2.07787   0.00004   0.00004   0.00009   0.00013   2.07800
   R23        2.07468   0.00002   0.00008   0.00002   0.00010   2.07478
   R24        2.06364   0.00005   0.00011   0.00008   0.00019   2.06383
   R25        2.07468   0.00002   0.00008   0.00002   0.00010   2.07478
    A1        1.93792   0.00003  -0.00020   0.00030   0.00010   1.93802
    A2        1.93793   0.00003  -0.00020   0.00029   0.00009   1.93802
    A3        1.95687  -0.00002   0.00018  -0.00017   0.00001   1.95688
    A4        1.85267  -0.00005  -0.00011  -0.00040  -0.00051   1.85216
    A5        1.88719   0.00000   0.00016  -0.00002   0.00014   1.88733
    A6        1.88718   0.00000   0.00016  -0.00002   0.00014   1.88733
    A7        2.10472  -0.00004  -0.00012  -0.00007  -0.00019   2.10453
    A8        2.00158  -0.00003  -0.00000  -0.00012  -0.00012   2.00145
    A9        2.17689   0.00007   0.00012   0.00019   0.00031   2.17720
   A10        2.23069  -0.00014  -0.00019  -0.00051  -0.00070   2.22999
   A11        2.04490   0.00005   0.00002   0.00017   0.00019   2.04509
   A12        2.00759   0.00009   0.00017   0.00034   0.00051   2.00810
   A13        2.14596  -0.00015  -0.00029  -0.00052  -0.00081   2.14515
   A14        2.05789   0.00010   0.00013   0.00039   0.00052   2.05841
   A15        2.07933   0.00006   0.00016   0.00013   0.00029   2.07962
   A16        2.21122  -0.00011  -0.00007  -0.00048  -0.00055   2.21068
   A17        2.05797   0.00004   0.00007   0.00009   0.00016   2.05813
   A18        2.01399   0.00008  -0.00000   0.00039   0.00038   2.01437
   A19        2.06385   0.00002  -0.00034   0.00032  -0.00001   2.06384
   A20        2.05594   0.00014   0.00014   0.00046   0.00060   2.05654
   A21        2.16340  -0.00016   0.00019  -0.00078  -0.00059   2.16281
   A22        2.25105  -0.00013  -0.00002  -0.00060  -0.00062   2.25044
   A23        2.03748   0.00005   0.00008   0.00014   0.00022   2.03769
   A24        1.99466   0.00008  -0.00006   0.00046   0.00040   1.99506
   A25        1.98447  -0.00003   0.00034  -0.00028   0.00006   1.98453
   A26        1.92985   0.00003  -0.00026   0.00029   0.00003   1.92988
   A27        1.92980   0.00003  -0.00026   0.00031   0.00005   1.92984
   A28        1.88129   0.00003   0.00020   0.00017   0.00037   1.88166
[...]
      1          6           0        4.185268   -0.987693   -0.000026
      2          6           0        2.967326   -0.100418   -0.000015
      3          6           0        1.723857   -0.637125   -0.000042
      4          6           0        0.453060    0.063952   -0.000018
      5          6           0       -0.741743   -0.576886   -0.000013
      6          6           0       -2.066003    0.044301    0.000012
      7          6           0       -3.153358   -0.763844    0.000007
      8          6           0       -4.604229   -0.390270   -0.000017
      9          6           0        3.265046    1.376296    0.000078
     10          6           0       -2.137204    1.553649    0.000029
     11          1           0        4.816654   -0.791757   -0.879331
     12          1           0        4.816720   -0.791696    0.879218
     13          1           0        3.921194   -2.050591    0.000022
     14          1           0        1.650951   -1.726436   -0.000081
     15          1           0        0.471022    1.151325   -0.000007
     16          1           0       -0.736317   -1.668580   -0.000028
     17          1           0       -2.966246   -1.839356   -0.000042
     18          1           0       -4.780265    0.688701    0.000912
     19          1           0       -5.112273   -0.813290   -0.879094
     20          1           0       -5.112675   -0.814905    0.878034
     21          1           0        2.370710    2.004225   -0.000337
     22          1           0        3.866985    1.647436    0.879478
     23          1           0        3.867781    1.647388   -0.878786
     24          1           0       -1.631134    1.970293   -0.880736
     25          1           0       -3.164204    1.925167    0.000087
     26          1           0       -1.631018    1.970302    0.880723
 ---------------------------------------------------------------------
 Rotational constants (GHZ):           3.9973563           0.4297040           0.3917463

 **********************************************************************

            Population analysis using the SCF Density.

 **********************************************************************

 Orbital symmetries:
       Occupied  (A) (A) (A) (A) (A) (A) (A) (A) (A) (A) (A) (A)
                 (A) (A) (A) (A) (A) (A) (A) (A) (A) (A) (A) (A)
                 (A) (A) (A) (A) (A) (A) (A) (A) (A) (A) (A) (A)
                 (A) (A)
       Virtual   (A) (A) (A) (A) (A) (A) (A) (A) (A) (A) (A) (A)
                 (A) (A) (A) (A) (A) (A) (A) (A) (A) (A) (A) (A)
                 (A) (A) (A) (A) (A) (A) (A) (A) (A) (A) (A) (A)
                 (A) (A) (A) (A) (A) (A) (A) (A) (A) (A) (A) (A)
                 (A) (A) (A) (A) (A) (A) (A) (A) (A) (A) (A) (A)
                 (A) (A) (A) (A) (A) (A) (A) (A) (A) (A) (A) (A)
                 (A) (A) (A) (A) (A) (A) (A) (A) (A) (A) (A) (A)
                 (A) (A) (A) (A) (A) (A) (A) (A) (A) (A) (A) (A)
                 (A) (A) (A) (A) (A) (A) (A) (A) (A) (A) (A) (A)
                 (A) (A) (A) (A) (A) (A) (A) (A) (A) (A) (A) (A)
                 (A) (A) (A) (A) (A) (A) (A) (A) (A) (A) (A) (A)
                 (A) (A) (A) (A) (A) (A) (A) (A) (A) (A) (A) (A)
 The electronic state is 1-A.
 Alpha  occ. eigenvalues --  -10.19006 -10.18694 -10.17973 -10.17815 -10.17734
 Alpha  occ. eigenvalues --  -10.17312 -10.17246 -10.17112 -10.17042 -10.16992
 Alpha  occ. eigenvalues --   -0.81987  -0.80128  -0.75344  -0.71381  -0.68295
 Alpha  occ. eigenvalues --   -0.67416  -0.64346  -0.56288  -0.52125  -0.50307
 Alpha  occ. eigenvalues --   -0.46901  -0.44876  -0.43091  -0.42219  -0.41197
 Alpha  occ. eigenvalues --   -0.40536  -0.39307  -0.37532  -0.37458  -0.36697
 Alpha  occ. eigenvalues --   -0.36278  -0.35604  -0.34646  -0.33142  -0.31870
 Alpha  occ. eigenvalues --   -0.31280  -0.25584  -0.18815
 Alpha virt. eigenvalues --   -0.02866   0.05504   0.10624   0.11102   0.11227
 Alpha virt. eigenvalues --    0.11822   0.14281   0.14546   0.15543   0.16172
 Alpha virt. eigenvalues --    0.17335   0.17725   0.18629   0.19824   0.19829
 Alpha virt. eigenvalues --    0.20218   0.21478   0.22947   0.23794   0.24716
 Alpha virt. eigenvalues --    0.26089   0.27084   0.30187   0.35770   0.37900
 Alpha virt. eigenvalues --    0.42277   0.45753   0.46915   0.49184   0.51241
 Alpha virt. eigenvalues --    0.52710   0.53124   0.53901   0.56320   0.56619
 Alpha virt. eigenvalues --    0.57957   0.58939   0.59736   0.60844   0.63391
 Alpha virt. eigenvalues --    0.63804   0.65816   0.66119   0.68972   0.70128
 Alpha virt. eigenvalues --    0.72260   0.73602   0.74966   0.76305   0.77475
 Alpha virt. eigenvalues --    0.78479   0.79795   0.80082   0.83073   0.85268
 Alpha virt. eigenvalues --    0.87444   0.87973   0.88177   0.89104   0.90716
 Alpha virt. eigenvalues --    0.91434   0.91578   0.91782   0.93399   0.95164
 Alpha virt. eigenvalues --    0.95647   0.97095   0.98374   0.99101   1.00838
 Alpha virt. eigenvalues --    1.03210   1.06509   1.10438   1.11776   1.16777
 Alpha virt. eigenvalues --    1.20913   1.23136   1.27865   1.32775   1.33232
 Alpha virt. eigenvalues --    1.34657   1.36827   1.40186   1.43587   1.44125
 Alpha virt. eigenvalues --    1.47290   1.48783   1.54642   1.56095   1.60346
 Alpha virt. eigenvalues --    1.64371   1.75979   1.80538   1.82708   1.84764
 Alpha virt. eigenvalues --    1.85762   1.86639   1.88210   1.91101   1.92081
 Alpha virt. eigenvalues --    1.96152   1.97905   2.00806   2.02334   2.02672
 Alpha virt. eigenvalues --    2.07308   2.08338   2.10329   2.18616   2.19671
 Alpha virt. eigenvalues --    2.19711   2.23086   2.27570   2.28751   2.29192
 Alpha virt. eigenvalues --    2.31336   2.34008   2.34082   2.42324   2.43133
 Alpha virt. eigenvalues --    2.45644   2.48578   2.49652   2.52117   2.52498
 Alpha virt. eigenvalues --    2.55544   2.59220   2.67982   2.81106   2.87506
 Alpha virt. eigenvalues --    2.94550   3.03410   3.11366   3.16289   4.09139
 Alpha virt. eigenvalues --    4.10919   4.15268   4.19874   4.25426   4.29304
 Alpha virt. eigenvalues --    4.31409   4.37184   4.54135   4.62175
          Condensed to atoms (all electrons):
               1          2          3          4          5          6
     1  C    5.194812   0.360095  -0.021776   0.006570  -0.000235   0.000002
     2  C    0.360095   4.691234   0.662089  -0.027559   0.002629  -0.000179
     3  C   -0.021776   0.662089   4.938579   0.402882  -0.008498   0.003427
     4  C    0.006570  -0.027559   0.402882   5.031616   0.554330  -0.026567
     5  C   -0.000235   0.002629  -0.008498   0.554330   5.041296   0.413297
     6  C    0.000002  -0.000179   0.003427  -0.026567   0.413297   4.603734
     7  C   -0.000000   0.000002  -0.000238   0.005689  -0.019949   0.644286
     8  C    0.000000  -0.000000   0.000001  -0.000251   0.005240  -0.016124
     9  C   -0.088254   0.380544  -0.050703  -0.017260   0.000822   0.000005
    10  C   -0.000000   0.000004   0.000355  -0.013049  -0.073483   0.378732
    11  H    0.363490  -0.031806  -0.001437  -0.000129   0.000005  -0.000000
    12  H    0.363498  -0.031816  -0.001438  -0.000129   0.000005  -0.000000
    13  H    0.363946  -0.029488  -0.004340   0.000009   0.000005   0.000000
    14  H   -0.014585  -0.040821   0.357532  -0.061687  -0.005096   0.000183
    15  H    0.000044  -0.005778  -0.050247   0.359855  -0.045723  -0.012631
    16  H   -0.000015   0.000499  -0.006933  -0.064424   0.363950  -0.046422
    17  H   -0.000000   0.000000  -0.000002   0.000292  -0.014701  -0.037267
    18  H    0.000000   0.000000  -0.000000   0.000003   0.000137  -0.005159
    19  H   -0.000000  -0.000000  -0.000000   0.000005  -0.000097  -0.001127
    20  H   -0.000000  -0.000000  -0.000000   0.000005  -0.000097  -0.001114
    21  H    0.005018  -0.022931  -0.008024   0.003435   0.000122   0.000006
    22  H   -0.002084  -0.031166   0.000131   0.000420  -0.000005  -0.000000
    23  H   -0.002089  -0.031172   0.000137   0.000419  -0.000005  -0.000000
    24  H   -0.000000  -0.000005  -0.000003   0.002547  -0.003666  -0.025184
    25  H    0.000000  -0.000000  -0.000004   0.000248   0.004496  -0.024589
    26  H   -0.000000  -0.000005  -0.000003   0.002547  -0.003668  -0.025184
               7          8          9         10         11         12
     1  C   -0.000000   0.000000  -0.088254  -0.000000   0.363490   0.363498
     2  C    0.000002  -0.000000   0.380544   0.000004  -0.031806  -0.031816
     3  C   -0.000238   0.000001  -0.050703   0.000355  -0.001437  -0.001438
     4  C    0.005689  -0.000251  -0.017260  -0.013049  -0.000129  -0.000129
     5  C   -0.019949   0.005240   0.000822  -0.073483   0.000005   0.000005
     6  C    0.644286  -0.016124   0.000005   0.378732  -0.000000  -0.000000
     7  C    5.045639   0.342334  -0.000000  -0.069698  -0.000000  -0.000000
     8  C    0.342334   5.148483  -0.000000  -0.017298  -0.000000  -0.000000
     9  C   -0.000000  -0.000000   5.205034  -0.000004  -0.000934  -0.000929
    10  C   -0.069698  -0.017298  -0.000004   5.238551   0.000000   0.000000
    11  H   -0.000000  -0.000000  -0.000934   0.000000   0.566178  -0.036532
    12  H   -0.000000  -0.000000  -0.000929   0.000000  -0.036532   0.566181
    13  H   -0.000000   0.000000   0.005031   0.000000  -0.026452  -0.026453
    14  H   -0.000006  -0.000000   0.007277   0.000003   0.000204   0.000203
    15  H    0.000325   0.000001   0.002230   0.006294  -0.000000  -0.000000
    16  H   -0.010334   0.000169  -0.000000   0.006215   0.000000   0.000000
    17  H    0.357469  -0.059446   0.000000   0.007335   0.000000   0.000000
    18  H   -0.032960   0.370636   0.000000   0.001986  -0.000000  -0.000000
    19  H   -0.029498   0.367656   0.000000   0.000372   0.000000  -0.000000
    20  H   -0.029487   0.367655   0.000000   0.000371  -0.000000   0.000000
    21  H   -0.000000   0.000000   0.362119  -0.000027  -0.000037  -0.000037
    22  H   -0.000000  -0.000000   0.364502   0.000000  -0.000808   0.004520
    23  H   -0.000000  -0.000000   0.364506   0.000000   0.004523  -0.000809
    24  H    0.000504   0.000436   0.000002   0.361205   0.000000  -0.000000
    25  H   -0.006195   0.003043  -0.000000   0.361620   0.000000   0.000000
    26  H    0.000506   0.000435   0.000002   0.361203  -0.000000   0.000000
              13         14         15         16         17         18
     1  C    0.363946  -0.014585   0.000044  -0.000015  -0.000000   0.000000
     2  C   -0.029488  -0.040821  -0.005778   0.000499   0.000000   0.000000
     3  C   -0.004340   0.357532  -0.050247  -0.006933  -0.000002  -0.000000
     4  C    0.000009  -0.061687   0.359855  -0.064424   0.000292   0.000003
     5  C    0.000005  -0.005096  -0.045723   0.363950  -0.014701   0.000137
     6  C    0.000000   0.000183  -0.012631  -0.046422  -0.037267  -0.005159
     7  C   -0.000000  -0.000006   0.000325  -0.010334   0.357469  -0.032960
     8  C    0.000000  -0.000000   0.000001   0.000169  -0.059446   0.370636
     9  C    0.005031   0.007277   0.002230  -0.000000   0.000000   0.000000
    10  C    0.000000   0.000003   0.006294   0.006215   0.007335   0.001986
    11  H   -0.026452   0.000204  -0.000000   0.000000   0.000000  -0.000000
    12  H   -0.026453   0.000203  -0.000000   0.000000   0.000000  -0.000000
    13  H    0.545796   0.007948   0.000007   0.000002   0.000000   0.000000
    14  H    0.007948   0.606216   0.004976   0.005860   0.000001  -0.000000
    15  H    0.000007   0.004976   0.573738   0.005713  -0.000004  -0.000001
    16  H    0.000002   0.005860   0.005713   0.597682   0.008781   0.000010
    17  H    0.000000   0.000001  -0.000004   0.008781   0.593289   0.004444
    18  H    0.000000  -0.000000  -0.000001   0.000010   0.004444   0.536720
    19  H   -0.000000   0.000000   0.000000  -0.000011  -0.000941  -0.026993
    20  H   -0.000000   0.000000   0.000000  -0.000011  -0.000954  -0.026989
    21  H   -0.000175  -0.000049   0.005970   0.000003  -0.000000   0.000000
    22  H   -0.000035  -0.000158  -0.000098   0.000000   0.000000  -0.000000
    23  H   -0.000035  -0.000158  -0.000098   0.000000   0.000000  -0.000000
    24  H   -0.000000   0.000000   0.001790  -0.000067  -0.000173  -0.000172
    25  H    0.000000   0.000000  -0.000068  -0.000127   0.000006   0.007614
    26  H   -0.000000   0.000000   0.001791  -0.000067  -0.000173  -0.000171
              19         20         21         22         23         24
     1  C   -0.000000  -0.000000   0.005018  -0.002084  -0.002089  -0.000000
     2  C   -0.000000  -0.000000  -0.022931  -0.031166  -0.031172  -0.000005
     3  C   -0.000000  -0.000000  -0.008024   0.000131   0.000137  -0.000003
     4  C    0.000005   0.000005   0.003435   0.000420   0.000419   0.002547
     5  C   -0.000097  -0.000097   0.000122  -0.000005  -0.000005  -0.003666
     6  C   -0.001127  -0.001114   0.000006  -0.000000  -0.000000  -0.025184
     7  C   -0.029498  -0.029487  -0.000000  -0.000000  -0.000000   0.000504
     8  C    0.367656   0.367655   0.000000  -0.000000  -0.000000   0.000436
     9  C    0.000000   0.000000   0.362119   0.364502   0.364506   0.000002
    10  C    0.000372   0.000371  -0.000027   0.000000   0.000000   0.361205
    11  H    0.000000  -0.000000  -0.000037  -0.000808   0.004523   0.000000
    12  H   -0.000000   0.000000  -0.000037   0.004520  -0.000809  -0.000000
    13  H   -0.000000  -0.000000  -0.000175  -0.000035  -0.000035  -0.000000
    14  H    0.000000   0.000000  -0.000049  -0.000158  -0.000158   0.000000
    15  H    0.000000   0.000000   0.005970  -0.000098  -0.000098   0.001790
    16  H   -0.000011  -0.000011   0.000003   0.000000   0.000000  -0.000067
    17  H   -0.000941  -0.000954  -0.000000   0.000000   0.000000  -0.000173
    18  H   -0.026993  -0.026989   0.000000  -0.000000  -0.000000  -0.000172
    19  H    0.556767  -0.034092  -0.000000  -0.000000   0.000000   0.000052
    20  H   -0.034092   0.556770  -0.000000   0.000000  -0.000000  -0.000027
    21  H   -0.000000  -0.000000   0.537189  -0.027097  -0.027096  -0.000005
    22  H   -0.000000   0.000000  -0.027097   0.559608  -0.034610  -0.000000
    23  H    0.000000  -0.000000  -0.027096  -0.034610   0.559616   0.000001
    24  H    0.000052  -0.000027  -0.000005  -0.000000   0.000001   0.558746
    25  H   -0.000183  -0.000183   0.000000   0.000000   0.000000  -0.027578
    26  H   -0.000027   0.000052  -0.000005   0.000001  -0.000000  -0.035948
              25         26
     1  C    0.000000  -0.000000
     2  C   -0.000000  -0.000005
     3  C   -0.000004  -0.000003
     4  C    0.000248   0.002547
     5  C    0.004496  -0.003668
     6  C   -0.024589  -0.025184
     7  C   -0.006195   0.000506
     8  C    0.003043   0.000435
     9  C   -0.000000   0.000002
    10  C    0.361620   0.361203
    11  H    0.000000  -0.000000
    12  H    0.000000   0.000000
    13  H    0.000000  -0.000000
    14  H    0.000000   0.000000
    15  H   -0.000068   0.001791
    16  H   -0.000127  -0.000067
    17  H    0.000006  -0.000173
    18  H    0.007614  -0.000171
    19  H   -0.000183  -0.000027
    20  H   -0.000183   0.000052
    21  H    0.000000  -0.000005
    22  H    0.000000   0.000001
    23  H    0.000000  -0.000000
    24  H   -0.027578  -0.035948
    25  H    0.541028  -0.027579
    26  H   -0.027579   0.558750
 Mulliken charges:
               1
     1  C   -0.528438
     2  C    0.155630
     3  C   -0.211489
     4  C   -0.159818
     5  C   -0.211109
     6  C    0.177876
     7  C   -0.198389
     8  C   -0.512969
     9  C   -0.533987
    10  C   -0.550685
    11  H    0.163736
    12  H    0.163734
    13  H    0.164233
    14  H    0.132156
    15  H    0.151913
    16  H    0.139525
    17  H    0.142044
    18  H    0.170896
    19  H    0.168118
    20  H    0.168101
    21  H    0.171622
    22  H    0.166881
    23  H    0.166870
    24  H    0.167550
    25  H    0.168452
    26  H    0.167546
 Sum of Mulliken charges =  -0.00000
 Mulliken charges with hydrogens summed into heavy atoms:
               1
     1  C   -0.036734
     2  C    0.155630
     3  C   -0.079333
     4  C   -0.007904
     5  C   -0.071584
     6  C    0.177876
     7  C   -0.056345
     8  C   -0.005853
     9  C   -0.028615
    10  C   -0.047138
 Electronic spatial extent (au):  <R**2>=           2880.2510
 Charge=             -0.0000 electrons
 Dipole moment (field-independent basis, Debye):
    X=              0.1378    Y=              0.5208    Z=             -0.0001  Tot=              0.5387
 Quadrupole moment (field-independent basis, Debye-Ang):
   XX=            -52.3770   YY=            -58.8209   ZZ=            -65.9888
   XY=              0.9781   XZ=              0.0010   YZ=              0.0003
 Traceless Quadrupole moment (field-independent basis, Debye-Ang):
   XX=              6.6853   YY=              0.2413   ZZ=             -6.9266
   XY=              0.9781   XZ=              0.0010   YZ=              0.0003
 Octapole moment (field-independent basis, Debye-Ang**2):
  XXX=             -0.5861  YYY=             -3.0573  ZZZ=             -0.0009  XYY=             -1.9757
  XXY=              0.5913  XXZ=             -0.0022  XZZ=              1.9276  YZZ=              2.4850
  YYZ=              0.0011  XYZ=              0.0005
 Hexadecapole moment (field-independent basis, Debye-Ang**3):
 XXXX=          -3193.0648 YYYY=           -436.6291 ZZZZ=            -94.8995 XXXY=             23.4631
 XXXZ=              0.0040 YYYX=             -0.9884 YYYZ=             -0.0072 ZZZX=              0.0090
 ZZZY=             -0.0037 XXYY=           -623.6917 XXZZ=           -583.6237 YYZZ=            -90.4941
 XXYZ=             -0.0018 YYXZ=             -0.0076 ZZXY=              4.5745
 N-N= 4.783749200434D+02 E-N=-1.859818642695D+03  KE= 3.867029172866D+02
 Unable to Open any file for archive entry.
 1\1\GINC-CN02\FOpt\RB3LYP\6-31G(d)\C10H16\2100011873\06-Nov-2023\0\\# 
 opt b3lyp/6-31g* scrf(smd, solvent=ethanol)\\B-2\\0,1\C,4.1849397518,-
 0.9873626826,-0.000003267\C,2.9670709751,-0.0999871298,0.0000081421\C,
 1.7235571223,-0.6365915712,-0.0000190117\C,0.452818274,0.0645895194,0.
 000004941\C,-0.7420370144,-0.5761493141,0.0000102909\C,-2.0662467099,0
 .0451461937,0.0000346198\C,-3.1536674467,-0.7629089617,0.0000297022\C,
 -4.6045083824,-0.3892146233,0.0000061714\C,3.2649124425,1.3767019975,0
 .0001007084\C,-2.137323199,1.5545007047,0.0000519165\H,4.816341569,-0.
 7914793419,-0.8793076107\H,4.8164073271,-0.7914180006,0.8792407\H,3.92
 07779123,-2.0502388574,0.000044573\H,1.6505617178,-1.7258969247,-0.000
 0578148\H,0.4708697942,1.1519619372,0.0000159957\H,-0.7367015405,-1.66
 78441141,-0.000004621\H,-2.9666450675,-1.8384356439,-0.0000192424\H,-4
 .780455561,0.6897705391,0.0009352376\H,-5.1125870242,-0.8121932184,-0.
 8790707977\H,-5.1129887562,-0.8138080204,0.8780571587\H,2.3706282656,2
 .0047048554,-0.0003141941\H,3.8668744214,1.6477928336,0.8795004987\H,3
 .8676703304,1.6477446969,-0.8787625516\H,-1.6312179404,1.971102336,-0.
 8807128667\H,-3.1642924846,1.9261033026,0.0001101264\H,-1.6311027767,1
 .9711114881,0.8807461954\\Version=ES64L-G16RevC.02\State=1-A\HF=-390.6
 789937\RMSD=9.114e-09\RMSF=2.261e-05\Dipole=0.054222,0.2048905,-0.0000
 348\Quadrupole=4.9704463,0.1792991,-5.1497454,0.7268354,0.0007199,0.00
 02117\PG=C01 [X(C10H16)]\\@
 The archive entry for this job was punched.


 IT PROBABLY IS NOT POSSIBLE FOR A SCIENTIST TO INTERROGATE NATURE 
 FROM A WHOLLY DISINTERESTED VIEWPOINT.
 EVEN IF HE HAS NO PARTICULAR AXE TO GRIND, HE IS LIKELY TO HAVE 
 A DISTINCTIVE WAY OF VIEWING NATURE.

                                                   -- JOHN LOSEE
 Job cpu time:       0 days  0 hours 11 minutes 45.5 seconds.
 Elapsed time:       0 days  0 hours  0 minutes 31.2 seconds.
 File lengths (MBytes):  RWF=    336 Int=      0 D2E=      0 Chk=     32 Scr=     32
 Normal termination of Gaussian 16 at Mon Nov  6 21:38:15 2023.
