 Entering Gaussian System, Link 0=g16
 Initial command:
 /nfs-share/home/2100011873/Gaussian16_AVX2/g16/l1.exe "/nfs-share/home/2100011873/GaussTmp/Gau-133582.inp" -scrdir="/nfs-share/home/2100011873/GaussTmp/"
 Entering Link 1 = /nfs-share/home/2100011873/Gaussian16_AVX2/g16/l1.exe PID=    133583.
  
 Copyright (c) 1988-2021, Gaussian, Inc.  All Rights Reserved.
  
 This is part of the Gaussian(R) 16 program.  It is based on
 the Gaussian(R) 09 system (copyright 2009, Gaussian, Inc.),
 the Gaussian(R) 03 system (copyright 2003, Gaussian, Inc.),
 the Gaussian(R) 98 system (copyright 1998, Gaussian, Inc.),
 the Gaussian(R) 94 system (copyright 1995, Gaussian, Inc.),
 the Gaussian 92(TM) system (copyright 1992, Gaussian, Inc.),
 the Gaussian 90(TM) system (copyright 1990, Gaussian, Inc.),
 the Gaussian 88(TM) system (copyright 1988, Gaussian, Inc.),
 the Gaussian 86(TM) system (copyright 1986, Carnegie Mellon
 University), and the Gaussian 82(TM) system (copyright 1983,
 Carnegie Mellon University). Gaussian is a federally registered
 trademark of Gaussian, Inc.
  
 This software contains proprietary and confidential information,
 including trade secrets, belonging to Gaussian, Inc.
  
 This software is provided under written license and may be
 used, copied, transmitted, or stored only in accord with that
 written license.
  
 The following legend is applicable only to US Government
 contracts under FAR:
  
                    RESTRICTED RIGHTS LEGEND
  
 Use, reproduction and disclosure by the US Government is
 subject to restrictions as set forth in subparagraphs (a)
 and (c) of the Commercial Computer Software - Restricted
 Rights clause in FAR 52.227-19.
  
 Gaussian, Inc.
 340 Quinnipiac St., Bldg. 40, Wallingford CT 06492
  
  
 ---------------------------------------------------------------
 Warning -- This program may not be used in any manner that
 competes with the business of Gaussian, Inc. or will provide
 assistance to any competitor of Gaussian, Inc.  The licensee
 of this program is prohibited from giving any competitor of
 Gaussian, Inc. access to this program.  By using this program,
 the user acknowledges that Gaussian, Inc. is engaged in the
 business of creating and licensing software in the field of
 computational chemistry and represents and warrants to the
 licensee that it is not a competitor of Gaussian, Inc. and that
 it will not use this program in any manner prohibited above.
 ---------------------------------------------------------------
  

 Cite this work as:
 Gaussian 16, Revision C.02,
 M. J. Frisch, G. W. Trucks, H. B. Schlegel, G. E. Scuseria, 
 M. A. Robb, J. R. Cheeseman, G. Scalmani, V. Barone, 
 G. A. Petersson, H. Nakatsuji, X. Li, M. Caricato, A. V. Marenich, 
 J. Bloino, B. G. Janesko, R. Gomperts, B. Mennucci, H. P. Hratchian, 
 J. V. Ortiz, A. F. Izmaylov, J. L. Sonnenberg, D. Williams-Young, 
 F. Ding, F. Lipparini, F. Egidi, J. Goings, B. Peng, A. Petrone, 
 T. Henderson, D. Ranasinghe, V. G. Zakrzewski, J. Gao, N. Rega, 
 G. Zheng, W. Liang, M. Hada, M. Ehara, K. Toyota, R. Fukuda, 
 J. Hasegawa, M. Ishida, T. Nakajima, Y. Honda, O. Kitao, H. Nakai, 
 T. Vreven, K. Throssell, J. A. Montgomery, Jr., J. E. Peralta, 
 F. Ogliaro, M. J. Bearpark, J. J. Heyd, E. N. Brothers, K. N. Kudin, 
 V. N. Staroverov, T. A. Keith, R. Kobayashi, J. Normand, 
 K. Raghavachari, A. P. Rendell, J. C. Burant, S. S. Iyengar, 
 J. Tomasi, M. Cossi, J. M. Millam, M. Klene, C. Adamo, R. Cammi, 
 J. W. Ochterski, R. L. Martin, K. Morokuma, O. Farkas, 
 J. B. Foresman, and D. J. Fox, Gaussian, Inc., Wallingford CT, 2019.
 
 ******************************************
 Gaussian 16:  ES64L-G16RevC.02  7-Dec-2021
                 6-Nov-2023 
 ******************************************
 %chk=A2.chk
 %nprocshared=36
 Will use up to   36 processors via shared memory.
 %mem=128GB
 ---------------------------------------------
 # opt b3lyp/6-31g* scrf(smd, solvent=ethanol)
 ---------------------------------------------
 1/18=20,19=15,26=3,38=1/1,3;
 2/9=110,12=2,17=6,18=5,40=1/2;
 3/5=1,6=6,7=1,11=2,25=1,30=1,70=32201,71=1,72=4,74=-5/1,2,3;
 4//1;
 5/5=2,38=5,53=4/2;
 6/7=2,8=2,9=2,10=2,28=1/1;
 7//1,2,3,16;
 1/18=20,19=15,26=3/3(2);
 2/9=110/2;
 99//99;
 2/9=110/2;
 3/5=1,6=6,7=1,11=2,25=1,30=1,70=32205,71=1,72=4,74=-5/1,2,3;
 4/5=5,16=3,69=1/1;
 5/5=2,38=5,53=4/2;
 7//1,2,3,16;
 1/18=20,19=15,26=3/3(-5);
 2/9=110/2;
 6/7=2,8=2,9=2,10=2,19=2,28=1/1;
 99/9=1/99;
 ---
 A-2
 ---
 Symbolic Z-matrix:
 Charge =  1 Multiplicity = 1
 C                     1.18593   1.12419   0.25907 
 C                    -0.06404   0.51889   0.18474 
 C                    -1.25506   1.23243   0.20607 
 C                    -2.57691   0.77597   0.13437 
 C                     2.39263   0.43147   0.17128 
 S                    -3.82767   1.97001  -0.18708 
 C                    -5.07788   0.74479  -0.13478 
 C                    -4.5092   -0.50864   0.11385 
 N                    -3.11837  -0.45818   0.27972 
 S                     2.5052   -1.30012  -0.12511 
 C                     4.26032  -1.22576  -0.10255 
 C                     4.68878   0.08701   0.11942 
 N                     3.62751   0.98166   0.28741 
 C                     5.15932  -2.26746  -0.2795 
 C                     6.51791  -1.9736   -0.23726 
 C                     6.95394  -0.66384  -0.02533 
 C                     6.05157   0.37821   0.15346 
 C                    -6.4468    0.90418  -0.30422 
 C                    -7.25123  -0.22611  -0.22641 
 C                    -6.68975  -1.48249   0.01487 
 C                    -5.32005  -1.6405    0.18625 
 C                     3.84714   2.41567   0.55458 
 C                     3.91176   3.24964  -0.71763 
 C                    -2.36937  -1.66031   0.69242 
 C                    -1.91885  -2.52299  -0.47911 
 H                     1.22885   2.1992    0.37656 
 H                    -0.09664  -0.55695   0.07224 
 H                    -1.16519   2.31437   0.2242 
 H                     4.81396  -3.27995  -0.44835 
 H                     7.24042  -2.76872  -0.37396 
 H                     8.01554  -0.44971  -0.00207 
 H                     6.40682   1.38809   0.30607 
 H                    -6.87574   1.88074  -0.49123 
 H                    -8.32188  -0.12916  -0.35743 
 H                    -7.33033  -2.35428   0.06736 
 H                    -4.90197  -2.62169   0.36374 
 H                     3.04859   2.7543    1.21217 
 H                     4.77271   2.49485   1.12204 
 H                     4.08254   4.2955   -0.45252 
 H                     4.72891   2.92447  -1.36454 
 H                     2.9782    3.18722  -1.27998 
 H                    -1.53167  -1.32932   1.3026 
 H                    -3.02767  -2.2247    1.35177 
 H                    -1.2761   -1.97256  -1.16835 
 H                    -1.35915  -3.37917  -0.09602 
 H                    -2.77567  -2.8996   -1.0408 
 

 GradGradGradGradGradGradGradGradGradGradGradGradGradGradGradGradGradGrad
 Berny optimization.
 Initialization pass.
                           ----------------------------
                           !    Initial Parameters    !
                           ! (Angstroms and Degrees)  !
 --------------------------                            --------------------------
 ! Name  Definition              Value          Derivative Info.                !
 --------------------------------------------------------------------------------
 ! R1    R(1,2)                  1.3908         estimate D2E/DX2                !
 ! R2    R(1,5)                  1.3942         estimate D2E/DX2                !
 ! R3    R(1,26)                 1.0823         estimate D2E/DX2                !
 ! R4    R(2,3)                  1.3886         estimate D2E/DX2                !
 ! R5    R(2,27)                 1.0822         estimate D2E/DX2                !
 ! R6    R(3,4)                  1.4003         estimate D2E/DX2                !
 ! R7    R(3,28)                 1.0858         estimate D2E/DX2                !
 ! R8    R(4,6)                  1.7588         estimate D2E/DX2                !
 ! R9    R(4,9)                  1.3555         estimate D2E/DX2                !
 ! R10   R(5,10)                 1.7604         estimate D2E/DX2                !
 ! R11   R(5,13)                 1.3569         estimate D2E/DX2                !
 ! R12   R(6,7)                  1.7513         estimate D2E/DX2                !
 ! R13   R(7,8)                  1.3987         estimate D2E/DX2                !
 ! R14   R(7,18)                 1.3886         estimate D2E/DX2                !
 ! R15   R(8,9)                  1.4016         estimate D2E/DX2                !
 ! R16   R(8,21)                 1.3942         estimate D2E/DX2                !
 ! R17   R(9,24)                 1.4753         estimate D2E/DX2                !
 ! R18   R(10,11)                1.7568         estimate D2E/DX2                !
 ! R19   R(11,12)                1.3987         estimate D2E/DX2                !
 ! R20   R(11,14)                1.3873         estimate D2E/DX2                !
 ! R21   R(12,13)                1.3982         estimate D2E/DX2                !
 ! R22   R(12,17)                1.394          estimate D2E/DX2                !
 ! R23   R(13,22)                1.4751         estimate D2E/DX2                !
 ! R24   R(14,15)                1.3907         estimate D2E/DX2                !
 ! R25   R(14,29)                1.083          estimate D2E/DX2                !
 ! R26   R(15,16)                1.3966         estimate D2E/DX2                !
 ! R27   R(15,30)                1.083          estimate D2E/DX2                !
 ! R28   R(16,17)                1.39           estimate D2E/DX2                !
 ! R29   R(16,31)                1.0832         estimate D2E/DX2                !
 ! R30   R(17,32)                1.0814         estimate D2E/DX2                !
 ! R31   R(18,19)                1.3895         estimate D2E/DX2                !
 ! R32   R(18,33)                1.0829         estimate D2E/DX2                !
 ! R33   R(19,20)                1.3971         estimate D2E/DX2                !
 ! R34   R(19,34)                1.083          estimate D2E/DX2                !
 ! R35   R(20,21)                1.3894         estimate D2E/DX2                !
 ! R36   R(20,35)                1.0831         estimate D2E/DX2                !
 ! R37   R(21,36)                1.0812         estimate D2E/DX2                !
 ! R38   R(22,23)                1.5226         estimate D2E/DX2                !
 ! R39   R(22,37)                1.0885         estimate D2E/DX2                !
 ! R40   R(22,38)                1.0886         estimate D2E/DX2                !
 ! R41   R(23,39)                1.0924         estimate D2E/DX2                !
 ! R42   R(23,40)                1.0918         estimate D2E/DX2                !
 ! R43   R(23,41)                1.0916         estimate D2E/DX2                !
 ! R44   R(24,25)                1.523          estimate D2E/DX2                !
 ! R45   R(24,42)                1.0879         estimate D2E/DX2                !
 ! R46   R(24,43)                1.0893         estimate D2E/DX2                !
 ! R47   R(25,44)                1.0914         estimate D2E/DX2                !
 ! R48   R(25,45)                1.0923         estimate D2E/DX2                !
 ! R49   R(25,46)                1.0915         estimate D2E/DX2                !
 ! A1    A(2,1,5)              123.9374         estimate D2E/DX2                !
 ! A2    A(2,1,26)             118.2772         estimate D2E/DX2                !
 ! A3    A(5,1,26)             117.7782         estimate D2E/DX2                !
 ! A4    A(1,2,3)              123.1216         estimate D2E/DX2                !
 ! A5    A(1,2,27)             117.7283         estimate D2E/DX2                !
 ! A6    A(3,2,27)             119.1181         estimate D2E/DX2                !
 ! A7    A(2,3,4)              129.8958         estimate D2E/DX2                !
 ! A8    A(2,3,28)             116.1867         estimate D2E/DX2                !
 ! A9    A(4,3,28)             113.816          estimate D2E/DX2                !
 ! A10   A(3,4,6)              117.3458         estimate D2E/DX2                !
 ! A11   A(3,4,9)              131.942          estimate D2E/DX2                !
 ! A12   A(6,4,9)              110.7097         estimate D2E/DX2                !
 ! A13   A(1,5,10)             123.6894         estimate D2E/DX2                !
 ! A14   A(1,5,13)             125.5109         estimate D2E/DX2                !
 ! A15   A(10,5,13)            110.7974         estimate D2E/DX2                !
 ! A16   A(4,6,7)               91.5617         estimate D2E/DX2                !
 ! A17   A(6,7,8)              109.9999         estimate D2E/DX2                !
 ! A18   A(6,7,18)             128.3053         estimate D2E/DX2                !
 ! A19   A(8,7,18)             121.6948         estimate D2E/DX2                !
 ! A20   A(7,8,9)              113.0936         estimate D2E/DX2                !
 ! A21   A(7,8,21)             120.0191         estimate D2E/DX2                !
 ! A22   A(9,8,21)             126.8842         estimate D2E/DX2                !
 ! A23   A(4,9,8)              114.612          estimate D2E/DX2                !
 ! A24   A(4,9,24)             124.6864         estimate D2E/DX2                !
 ! A25   A(8,9,24)             120.5024         estimate D2E/DX2                !
 ! A26   A(5,10,11)             91.1509         estimate D2E/DX2                !
 ! A27   A(10,11,12)           110.3533         estimate D2E/DX2                !
 ! A28   A(10,11,14)           127.8765         estimate D2E/DX2                !
 ! A29   A(12,11,14)           121.7689         estimate D2E/DX2                !
 ! A30   A(11,12,13)           112.7752         estimate D2E/DX2                !
 ! A31   A(11,12,17)           119.9632         estimate D2E/DX2                !
 ! A32   A(13,12,17)           127.2616         estimate D2E/DX2                !
 ! A33   A(5,13,12)            114.9014         estimate D2E/DX2                !
 ! A34   A(5,13,22)            123.037          estimate D2E/DX2                !
 ! A35   A(12,13,22)           122.0579         estimate D2E/DX2                !
 ! A36   A(11,14,15)           118.0687         estimate D2E/DX2                !
 ! A37   A(11,14,29)           121.0123         estimate D2E/DX2                !
 ! A38   A(15,14,29)           120.9188         estimate D2E/DX2                !
 ! A39   A(14,15,16)           120.5169         estimate D2E/DX2                !
 ! A40   A(14,15,30)           119.5226         estimate D2E/DX2                !
 ! A41   A(16,15,30)           119.9601         estimate D2E/DX2                !
 ! A42   A(15,16,17)           121.3253         estimate D2E/DX2                !
 ! A43   A(15,16,31)           119.6447         estimate D2E/DX2                !
 ! A44   A(17,16,31)           119.0297         estimate D2E/DX2                !
 ! A45   A(12,17,16)           118.3538         estimate D2E/DX2                !
 ! A46   A(12,17,32)           121.3133         estimate D2E/DX2                !
 ! A47   A(16,17,32)           120.3308         estimate D2E/DX2                !
 ! A48   A(7,18,19)            118.0699         estimate D2E/DX2                !
 ! A49   A(7,18,33)            121.0037         estimate D2E/DX2                !
 ! A50   A(19,18,33)           120.9264         estimate D2E/DX2                !
 ! A51   A(18,19,20)           120.5645         estimate D2E/DX2                !
 ! A52   A(18,19,34)           119.5213         estimate D2E/DX2                !
 ! A53   A(20,19,34)           119.914          estimate D2E/DX2                !
 ! A54   A(19,20,21)           121.3164         estimate D2E/DX2                !
 ! A55   A(19,20,35)           119.6368         estimate D2E/DX2                !
 ! A56   A(21,20,35)           119.0465         estimate D2E/DX2                !
 ! A57   A(8,21,20)            118.3335         estimate D2E/DX2                !
 ! A58   A(8,21,36)            121.3566         estimate D2E/DX2                !
 ! A59   A(20,21,36)           120.3084         estimate D2E/DX2                !
 ! A60   A(13,22,23)           112.7963         estimate D2E/DX2                !
 ! A61   A(13,22,37)           107.6147         estimate D2E/DX2                !
 ! A62   A(13,22,38)           106.9611         estimate D2E/DX2                !
 ! A63   A(23,22,37)           111.4403         estimate D2E/DX2                !
 ! A64   A(23,22,38)           111.079          estimate D2E/DX2                !
 ! A65   A(37,22,38)           106.6325         estimate D2E/DX2                !
 ! A66   A(22,23,39)           109.1632         estimate D2E/DX2                !
 ! A67   A(22,23,40)           111.3297         estimate D2E/DX2                !
 ! A68   A(22,23,41)           111.2737         estimate D2E/DX2                !
 ! A69   A(39,23,40)           108.1769         estimate D2E/DX2                !
 ! A70   A(39,23,41)           108.2684         estimate D2E/DX2                !
 ! A71   A(40,23,41)           108.5305         estimate D2E/DX2                !
 ! A72   A(9,24,25)            113.3622         estimate D2E/DX2                !
 ! A73   A(9,24,42)            107.4525         estimate D2E/DX2                !
 ! A74   A(9,24,43)            106.5406         estimate D2E/DX2                !
 ! A75   A(25,24,42)           112.0846         estimate D2E/DX2                !
 ! A76   A(25,24,43)           110.5404         estimate D2E/DX2                !
 ! A77   A(42,24,43)           106.4675         estimate D2E/DX2                !
 ! A78   A(24,25,44)           111.9811         estimate D2E/DX2                !
 ! A79   A(24,25,45)           109.0127         estimate D2E/DX2                !
 ! A80   A(24,25,46)           111.0424         estimate D2E/DX2                !
 ! A81   A(44,25,45)           108.3631         estimate D2E/DX2                !
 ! A82   A(44,25,46)           108.139          estimate D2E/DX2                !
 ! A83   A(45,25,46)           108.1954         estimate D2E/DX2                !
 ! D1    D(5,1,2,3)           -176.6232         estimate D2E/DX2                !
 ! D2    D(5,1,2,27)             1.2979         estimate D2E/DX2                !
 ! D3    D(26,1,2,3)             2.3773         estimate D2E/DX2                !
 ! D4    D(26,1,2,27)         -179.7016         estimate D2E/DX2                !
 ! D5    D(2,1,5,10)             3.1049         estimate D2E/DX2                !
 ! D6    D(2,1,5,13)          -177.494          estimate D2E/DX2                !
 ! D7    D(26,1,5,10)         -175.9002         estimate D2E/DX2                !
 ! D8    D(26,1,5,13)            3.5009         estimate D2E/DX2                !
 ! D9    D(1,2,3,4)            179.6694         estimate D2E/DX2                !
 ! D10   D(1,2,3,28)             3.6017         estimate D2E/DX2                !
 ! D11   D(27,2,3,4)             1.7758         estimate D2E/DX2                !
 ! D12   D(27,2,3,28)         -174.2919         estimate D2E/DX2                !
 ! D13   D(2,3,4,6)           -166.0516         estimate D2E/DX2                !
 ! D14   D(2,3,4,9)             14.5848         estimate D2E/DX2                !
 ! D15   D(28,3,4,6)            10.0914         estimate D2E/DX2                !
 ! D16   D(28,3,4,9)          -169.2722         estimate D2E/DX2                !
 ! D17   D(3,4,6,7)            179.8829         estimate D2E/DX2                !
 ! D18   D(9,4,6,7)             -0.6232         estimate D2E/DX2                !
 ! D19   D(3,4,9,8)           -179.175          estimate D2E/DX2                !
 ! D20   D(3,4,9,24)             5.9535         estimate D2E/DX2                !
 ! D21   D(6,4,9,8)              1.4294         estimate D2E/DX2                !
 ! D22   D(6,4,9,24)          -173.4421         estimate D2E/DX2                !
 ! D23   D(1,5,10,11)          178.8169         estimate D2E/DX2                !
 ! D24   D(13,5,10,11)          -0.6616         estimate D2E/DX2                !
 ! D25   D(1,5,13,12)         -178.0336         estimate D2E/DX2                !
 ! D26   D(1,5,13,22)            1.2776         estimate D2E/DX2                !
 ! D27   D(10,5,13,12)           1.4334         estimate D2E/DX2                !
 ! D28   D(10,5,13,22)        -179.2554         estimate D2E/DX2                !
 ! D29   D(4,6,7,8)             -0.3118         estimate D2E/DX2                !
 ! D30   D(4,6,7,18)           179.7348         estimate D2E/DX2                !
 ! D31   D(6,7,8,9)              1.1625         estimate D2E/DX2                !
 ! D32   D(6,7,8,21)          -179.4283         estimate D2E/DX2                !
 ! D33   D(18,7,8,9)          -178.8806         estimate D2E/DX2                !
 ! D34   D(18,7,8,21)            0.5287         estimate D2E/DX2                !
 ! D35   D(6,7,18,19)          179.6557         estimate D2E/DX2                !
 ! D36   D(6,7,18,33)           -0.3667         estimate D2E/DX2                !
 ! D37   D(8,7,18,19)           -0.2927         estimate D2E/DX2                !
 ! D38   D(8,7,18,33)          179.6849         estimate D2E/DX2                !
 ! D39   D(7,8,9,4)             -1.7173         estimate D2E/DX2                !
 ! D40   D(7,8,9,24)           173.3888         estimate D2E/DX2                !
 ! D41   D(21,8,9,4)           178.9222         estimate D2E/DX2                !
 ! D42   D(21,8,9,24)           -5.9717         estimate D2E/DX2                !
 ! D43   D(7,8,21,20)           -0.4162         estimate D2E/DX2                !
 ! D44   D(7,8,21,36)          179.1444         estimate D2E/DX2                !
 ! D45   D(9,8,21,20)          178.9044         estimate D2E/DX2                !
 ! D46   D(9,8,21,36)           -1.535          estimate D2E/DX2                !
 ! D47   D(4,9,24,25)          -96.8014         estimate D2E/DX2                !
 ! D48   D(4,9,24,42)           27.609          estimate D2E/DX2                !
 ! D49   D(4,9,24,43)          141.3966         estimate D2E/DX2                !
 ! D50   D(8,9,24,25)           88.6109         estimate D2E/DX2                !
 ! D51   D(8,9,24,42)         -146.9787         estimate D2E/DX2                !
 ! D52   D(8,9,24,43)          -33.1911         estimate D2E/DX2                !
 ! D53   D(5,10,11,12)          -0.2412         estimate D2E/DX2                !
 ! D54   D(5,10,11,14)        -179.8305         estimate D2E/DX2                !
 ! D55   D(10,11,12,13)          1.0752         estimate D2E/DX2                !
 ! D56   D(10,11,12,17)       -178.9468         estimate D2E/DX2                !
 ! D57   D(14,11,12,13)       -179.3061         estimate D2E/DX2                !
 ! D58   D(14,11,12,17)          0.6718         estimate D2E/DX2                !
 ! D59   D(10,11,14,15)        179.2427         estimate D2E/DX2                !
 ! D60   D(10,11,14,29)         -0.5952         estimate D2E/DX2                !
 ! D61   D(12,11,14,15)         -0.3044         estimate D2E/DX2                !
 ! D62   D(12,11,14,29)        179.8578         estimate D2E/DX2                !
 ! D63   D(11,12,13,5)          -1.658          estimate D2E/DX2                !
 ! D64   D(11,12,13,22)        179.0233         estimate D2E/DX2                !
 ! D65   D(17,12,13,5)         178.366          estimate D2E/DX2                !
 ! D66   D(17,12,13,22)         -0.9527         estimate D2E/DX2                !
 ! D67   D(11,12,17,16)         -0.5675         estimate D2E/DX2                !
 ! D68   D(11,12,17,32)        178.9099         estimate D2E/DX2                !
 ! D69   D(13,12,17,16)        179.4069         estimate D2E/DX2                !
 ! D70   D(13,12,17,32)         -1.1157         estimate D2E/DX2                !
 ! D71   D(5,13,22,23)         -88.367          estimate D2E/DX2                !
 ! D72   D(5,13,22,37)          34.9623         estimate D2E/DX2                !
 ! D73   D(5,13,22,38)         149.2177         estimate D2E/DX2                !
 ! D74   D(12,13,22,23)         90.8959         estimate D2E/DX2                !
 ! D75   D(12,13,22,37)       -145.7748         estimate D2E/DX2                !
 ! D76   D(12,13,22,38)        -31.5194         estimate D2E/DX2                !
 ! D77   D(11,14,15,16)         -0.1459         estimate D2E/DX2                !
 ! D78   D(11,14,15,30)       -179.9121         estimate D2E/DX2                !
 ! D79   D(29,14,15,16)        179.6921         estimate D2E/DX2                !
 ! D80   D(29,14,15,30)         -0.0741         estimate D2E/DX2                !
 ! D81   D(14,15,16,17)          0.2347         estimate D2E/DX2                !
 ! D82   D(14,15,16,31)       -179.5665         estimate D2E/DX2                !
 ! D83   D(30,15,16,17)        179.9998         estimate D2E/DX2                !
 ! D84   D(30,15,16,31)          0.1987         estimate D2E/DX2                !
 ! D85   D(15,16,17,12)          0.1271         estimate D2E/DX2                !
 ! D86   D(15,16,17,32)       -179.3556         estimate D2E/DX2                !
 ! D87   D(31,16,17,12)        179.9295         estimate D2E/DX2                !
 ! D88   D(31,16,17,32)          0.4468         estimate D2E/DX2                !
 ! D89   D(7,18,19,20)          -0.0386         estimate D2E/DX2                !
 ! D90   D(7,18,19,34)        -179.8493         estimate D2E/DX2                !
 ! D91   D(33,18,19,20)        179.9838         estimate D2E/DX2                !
 ! D92   D(33,18,19,34)          0.173          estimate D2E/DX2                !
 ! D93   D(18,19,20,21)          0.1376         estimate D2E/DX2                !
 ! D94   D(18,19,20,35)       -179.6776         estimate D2E/DX2                !
 ! D95   D(34,19,20,21)        179.9476         estimate D2E/DX2                !
 ! D96   D(34,19,20,35)          0.1324         estimate D2E/DX2                !
 ! D97   D(19,20,21,8)           0.0924         estimate D2E/DX2                !
 ! D98   D(19,20,21,36)       -179.4729         estimate D2E/DX2                !
 ! D99   D(35,20,21,8)         179.9087         estimate D2E/DX2                !
 ! D100  D(35,20,21,36)          0.3434         estimate D2E/DX2                !
 ! D101  D(13,22,23,39)       -179.5889         estimate D2E/DX2                !
 ! D102  D(13,22,23,40)        -60.2329         estimate D2E/DX2                !
 ! D103  D(13,22,23,41)         60.9763         estimate D2E/DX2                !
 ! D104  D(37,22,23,39)         59.2323         estimate D2E/DX2                !
 ! D105  D(37,22,23,40)        178.5884         estimate D2E/DX2                !
 ! D106  D(37,22,23,41)        -60.2025         estimate D2E/DX2                !
 ! D107  D(38,22,23,39)        -59.5141         estimate D2E/DX2                !
 ! D108  D(38,22,23,40)         59.8419         estimate D2E/DX2                !
 ! D109  D(38,22,23,41)       -178.9489         estimate D2E/DX2                !
 ! D110  D(9,24,25,44)          59.1093         estimate D2E/DX2                !
 ! D111  D(9,24,25,45)         179.005          estimate D2E/DX2                !
 ! D112  D(9,24,25,46)         -61.8884         estimate D2E/DX2                !
 ! D113  D(42,24,25,44)        -62.7498         estimate D2E/DX2                !
 ! D114  D(42,24,25,45)         57.1459         estimate D2E/DX2                !
 ! D115  D(42,24,25,46)        176.2526         estimate D2E/DX2                !
 ! D116  D(43,24,25,44)        178.6488         estimate D2E/DX2                !
 ! D117  D(43,24,25,45)        -61.4555         estimate D2E/DX2                !
 ! D118  D(43,24,25,46)         57.6511         estimate D2E/DX2                !
 --------------------------------------------------------------------------------
 Trust Radius=3.00D-01 FncErr=1.00D-07 GrdErr=1.00D-06 EigMax=2.50D+02 EigMin=1.00D-04
 Number of steps in this run=    260 maximum allowed number of steps=    276.
 GradGradGradGradGradGradGradGradGradGradGradGradGradGradGradGradGradGrad

                          Input orientation:                          
 ---------------------------------------------------------------------
 Center     Atomic      Atomic             Coordinates (Angstroms)
 Number     Number       Type             X           Y           Z
 ---------------------------------------------------------------------
      1          6           0        1.185932    1.124188    0.259065
      2          6           0       -0.064042    0.518894    0.184736
      3          6           0       -1.255062    1.232433    0.206071
      4          6           0       -2.576908    0.775971    0.134368
      5          6           0        2.392634    0.431471    0.171283
      6         16           0       -3.827667    1.970009   -0.187075
      7          6           0       -5.077877    0.744792   -0.134775
      8          6           0       -4.509195   -0.508640    0.113846
      9          7           0       -3.118372   -0.458179    0.279721
     10         16           0        2.505198   -1.300121   -0.125106
     11          6           0        4.260315   -1.225762   -0.102553
     12          6           0        4.688784    0.087010    0.119416
     13          7           0        3.627512    0.981655    0.287411
     14          6           0        5.159317   -2.267461   -0.279503
     15          6           0        6.517913   -1.973596   -0.237257
     16          6           0        6.953940   -0.663841   -0.025333
     17          6           0        6.051566    0.378213    0.153458
     18          6           0       -6.446804    0.904176   -0.304215
     19          6           0       -7.251229   -0.226106   -0.226408
     20          6           0       -6.689747   -1.482485    0.014868
     21          6           0       -5.320051   -1.640504    0.186250
     22          6           0        3.847144    2.415669    0.554580
     23          6           0        3.911762    3.249637   -0.717632
     24          6           0       -2.369369   -1.660308    0.692423
     25          6           0       -1.918854   -2.522991   -0.479110
     26          1           0        1.228852    2.199196    0.376562
     27          1           0       -0.096636   -0.556945    0.072235
     28          1           0       -1.165193    2.314370    0.224199
     29          1           0        4.813961   -3.279951   -0.448352
     30          1           0        7.240415   -2.768718   -0.373960
     31          1           0        8.015538   -0.449707   -0.002068
     32          1           0        6.406822    1.388085    0.306065
     33          1           0       -6.875736    1.880738   -0.491225
     34          1           0       -8.321880   -0.129159   -0.357431
     35          1           0       -7.330326   -2.354283    0.067360
     36          1           0       -4.901973   -2.621689    0.363736
     37          1           0        3.048585    2.754296    1.212168
     38          1           0        4.772710    2.494849    1.122044
     39          1           0        4.082538    4.295496   -0.452515
     40          1           0        4.728911    2.924468   -1.364544
     41          1           0        2.978199    3.187215   -1.279982
     42          1           0       -1.531667   -1.329317    1.302601
     43          1           0       -3.027666   -2.224702    1.351768
     44          1           0       -1.276100   -1.972556   -1.168349
     45          1           0       -1.359149   -3.379171   -0.096017
     46          1           0       -2.775672   -2.899604   -1.040801
 ---------------------------------------------------------------------
                    Distance matrix (angstroms):
                    1          2          3          4          5
     1  C    0.000000
     2  C    1.390806   0.000000
     3  C    2.443967   1.388568   0.000000
     4  C    3.780975   2.526484   1.400277   0.000000
     5  C    1.394164   2.458268   3.734761   4.981605   0.000000
     6  S    5.103982   4.050784   2.704973   1.758821   6.417762
     7  C    6.287635   5.029081   3.868835   2.515603   7.483340
     8  C    5.926355   4.562920   3.691778   2.320427   6.965799
     9  N    4.585994   3.208212   2.517045   1.355521   5.583406
    10  S    2.786633   3.163196   4.545664   5.495934   1.760377
    11  C    3.886498   4.671876   6.046268   7.128161   2.511900
    12  C    3.655846   4.772855   6.053826   7.298299   2.322423
    13  N    2.445901   3.721863   4.889687   6.209715   1.356876
    14  C    5.251774   5.938246   7.323203   8.323638   3.891269
    15  C    6.186487   7.050725   8.419875   9.508627   4.792617
    16  C    6.045481   7.120047   8.428352   9.640313   4.695091
    17  C    4.923619   6.117306   7.356580   8.637658   3.659363
    18  C    7.656654   6.413047   5.227077   3.896779   8.864830
    19  C    8.558310   7.237384   6.186145   4.794121   9.674433
    20  C    8.299440   6.923463   6.078087   4.693650   9.283175
    21  C    7.069416   5.682309   4.977780   3.656074   7.986164
    22  C    2.972760   4.362558   5.249192   6.643315   2.489891
    23  C    3.591882   4.906959   5.623025   6.996268   3.322646
    24  C    4.536671   3.212662   3.137861   2.507978   5.227217
    25  C    4.846289   3.624098   3.874700   3.419436   5.266952
    26  H    1.082261   2.128799   2.670866   4.070385   2.126354
    27  H    2.122756   1.082196   2.135822   2.816429   2.680157
    28  H    2.635439   2.106615   1.085814   2.089900   4.025698
    29  H    5.749737   6.215057   7.590976   8.450740   4.474531
    30  H    7.225801   8.029672   9.408442  10.450026   5.834336
    31  H    7.013477   8.139576   9.424274  10.663996   5.694170
    32  H    5.227767   6.530107   7.664117   9.006196   4.128799
    33  H    8.131777   6.979306   5.700745   4.482388   9.404359
    34  H    9.609861   8.300952   7.218822   5.836594  10.742190
    35  H    9.201259   7.814589   7.056388   5.691921  10.114701
    36  H    7.148786   5.770691   5.308397   4.123425   7.910127
    37  H    2.652383   3.967504   4.674364   6.059834   2.628541
    38  H    3.935533   5.308212   6.226294   7.612288   3.290325
    39  H    4.353604   5.644726   6.189189   7.555111   4.263284
    40  H    4.292996   5.582065   6.413871   7.761299   3.745930
    41  H    3.136394   4.303553   4.893876   6.218818   3.169098
    42  H    3.807098   2.611404   2.800259   2.624792   4.447515
    43  H    5.492128   4.203849   4.050497   3.269447   6.150484
    44  H    4.205822   3.083382   3.487324   3.308107   4.586237
    45  H    5.184955   4.117163   4.622660   4.336037   5.354280
    46  H    5.794382   4.532219   4.576098   3.863985   6.267104
                    6          7          8          9         10
     6  S    0.000000
     7  C    1.751262   0.000000
     8  C    2.588191   1.398679   0.000000
     9  N    2.572371   2.336366   1.401588   0.000000
    10  S    7.127606   7.853966   7.062949   5.700640   0.000000
    11  C    8.696870   9.543896   8.801443   7.428347   1.756836
    12  C    8.727517   9.792086   9.217247   7.827810   2.598456
    13  N    7.535362   8.718838   8.273881   6.897835   2.576094
    14  C    9.936326  10.672149   9.835055   8.491547   2.829122
    15  C   11.071837  11.910604  11.129532   9.768405   4.070384
    16  C   11.099837  12.114489  11.465030  10.079029   4.495121
    17  C   10.012443  11.139208  10.598007   9.208868   3.933336
    18  C    2.830124   1.388551   2.434164   3.643549   9.221136
    19  C    4.067585   2.382121   2.777472   4.170196   9.815887
    20  C    4.489098   2.753413   2.390184   3.724791   9.197818
    21  C    3.924587   2.418955   1.394219   2.500804   7.838834
    22  C    7.723431   9.106209   8.864211   7.540090   4.008726
    23  C    7.862423   9.350272   9.258970   8.010331   4.798938
    24  C    4.009907   3.715478   2.497988   1.475277   4.955753
    25  C    4.890389   4.558113   3.334527   2.505617   4.603582
    26  H    5.092995   6.492425   6.350321   5.096016   3.758450
    27  H    4.513683   5.152682   4.413020   3.030461   2.713078
    28  H    2.715971   4.231020   4.377661   3.391905   5.163170
    29  H   10.114746  10.683883   9.742560   8.450704   3.058529
    30  H   12.041300  12.811802  11.974942  10.633455   4.963969
    31  H   12.089283  13.148458  12.525408  11.137479   5.576934
    32  H   10.262874  11.511146  11.081243   9.702510   4.757629
    33  H    3.064507   2.156323   3.416980   4.492513   9.912307
    34  H    4.963212   3.367035   3.860398   5.252686  10.892692
    35  H    5.570714   3.836489   3.371548   4.623945   9.893727
    36  H    4.747759   3.407734   2.163723   2.805186   7.540006
    37  H    7.060866   8.478900   8.305005   7.015755   4.303704
    38  H    8.715259  10.083470   9.807710   8.467530   4.593342
    39  H    8.249224   9.829632   9.859937   8.659486   5.822897
    40  H    8.689790  10.121087   9.965665   8.702055   4.932368
    41  H    6.999703   8.495722   8.465410   7.272534   4.657645
    42  H    4.286759   4.352423   3.309429   2.079134   4.281995
    43  H    4.539123   3.902700   2.583069   2.068361   5.800741
    44  H    4.797626   4.785997   3.773589   2.790020   3.979791
    45  H    5.891995   5.553153   4.266940   3.430487   4.388220
    46  H    5.054569   4.404844   3.170965   2.796744   5.593249
                   11         12         13         14         15
    11  C    0.000000
    12  C    1.398652   0.000000
    13  N    2.329206   1.398181   0.000000
    14  C    1.387319   2.433942   3.636561   0.000000
    15  C    2.382047   2.778313   4.166918   1.390656   0.000000
    16  C    2.752696   2.390745   3.724324   2.420097   1.396599
    17  C    2.418028   1.393963   2.501624   2.825448   2.429227
    18  C   10.918777  11.173564  10.091970  12.031705  13.280435
    19  C   11.555531  11.949123  10.957632  12.577424  13.879593
    20  C   10.953700  11.486741  10.610942  11.878685  13.219192
    21  C    9.593687  10.157044   9.324421  10.508433  11.850219
    22  C    3.723245   2.514036   1.475132   4.934491   5.198621
    23  C    4.530895   3.362532   2.496928   5.673334   5.857042
    24  C    6.691302   7.293763   6.565561   7.615405   8.941266
    25  C    6.325087   7.129602   6.605473   7.085594   8.458095
    26  H    4.598876   4.061845   2.691454   5.985817   6.764845
    27  H    4.411450   4.828783   4.035204   5.538468   6.771628
    28  H    6.486558   6.264276   4.974952   7.826003   8.810772
    29  H    2.155410   3.416790   4.484450   1.083013   2.157447
    30  H    3.366804   3.861272   5.249360   2.142697   1.083012
    31  H    3.835891   3.371960   4.624648   3.396940   2.149519
    32  H    3.406854   2.163166   2.808932   3.906683   3.407116
    33  H   11.567759  11.718723  10.570376  12.731649  13.939520
    34  H   12.632463  13.021194  12.018224  13.649948  14.954459
    35  H   11.646690  12.264649  11.456488  12.494760  13.856819
    36  H    9.279739   9.968920   9.259699  10.088052  11.454039
    37  H    4.363215   3.316440   2.081487   5.647859   6.040698
    38  H    3.950333   2.609597   2.073125   4.979297   4.986024
    39  H    5.535194   4.290221   3.425796   6.652954   6.728960
    40  H    4.363097   3.202330   2.777869   5.321531   5.335010
    41  H    4.743894   3.807320   2.782593   5.959171   6.344353
    42  H    5.960892   6.488445   5.743547   6.939195   8.220827
    43  H    7.498506   8.149006   7.463577   8.348028   9.680193
    44  H    5.687312   6.440496   5.906946   6.503200   7.849431
    45  H    6.017939   6.974118   6.635556   6.615132   8.002731
    46  H    7.292953   8.123058   7.604544   7.996451   9.374108
                   16         17         18         19         20
    16  C    0.000000
    17  C    1.390008   0.000000
    18  C   13.495051  12.517801   0.000000
    19  C   14.213334  13.321931   1.389493   0.000000
    20  C   13.668284  12.877207   2.420121   1.397127   0.000000
    21  C   12.314605  11.549457   2.825867   2.429044   1.389392
    22  C    4.412693   3.028465  10.439708  11.435156  11.247798
    23  C    5.004941   3.685463  10.628828  11.701900  11.632778
    24  C    9.403840   8.680910   4.918876   5.170468   4.376799
    25  C    9.076829   8.505570   5.681408   5.811520   4.907962
    26  H    6.413668   5.159876   7.813849   8.840669   8.740126
    27  H    7.052061   6.219446   6.526961   7.168462   6.658005
    28  H    8.651724   7.472303   5.492111   6.610363   6.706760
    29  H    3.406242   3.908453  12.013847  12.447652  11.652500
    30  H    2.152700   3.405100  14.171626  14.713748  13.994820
    31  H    1.083229   2.137013  14.528717  15.270052  14.741517
    32  H    2.149317   1.081359  12.877201  13.763412  13.410633
    33  H   14.069537  13.030285   1.082880   2.156366   3.406170
    34  H   15.288782  14.391469   2.141617   1.082986   2.152663
    35  H   14.384243  13.658293   3.396503   2.149812   1.083111
    36  H   12.022779  11.358858   3.906966   3.406771   2.148402
    37  H    5.335435   3.972975   9.792077  10.818432  10.687327
    38  H    4.006440   2.655895  11.421119  12.401493  12.183306
    39  H    5.746517   4.425989  11.063005  12.204519  12.232973
    40  H    4.429470   3.246099  11.406248  12.439663  12.317052
    41  H    5.675499   4.403502   9.746541  10.835219  10.814431
    42  H    8.614627   7.857583   5.632843   6.022320   5.318600
    43  H   10.196330   9.520692   4.921652   4.931887   3.968504
    44  H    8.411467   7.808199   5.979841   6.295991   5.563070
    45  H    8.745597   8.312573   6.653919   6.683968   5.659062
    46  H   10.034698   9.491600   5.337463   5.276499   4.294490
                   21         22         23         24         25
    21  C    0.000000
    22  C   10.031235   0.000000
    23  C   10.486031   1.522564   0.000000
    24  C    2.993848   7.434892   8.096198   0.000000
    25  C    3.576259   7.661959   8.208301   1.523048   0.000000
    26  H    7.593922   2.633250   3.081995   5.286089   5.739275
    27  H    5.335838   4.962106   5.584014   2.601415   2.736749
    28  H    5.736315   5.024235   5.247594   4.179395   4.945979
    29  H   10.285364   5.863505   6.597120   7.451499   6.775303
    30  H   12.623471   6.265329   6.886119   9.732096   9.163168
    31  H   13.389974   5.088786   5.571190  10.478271  10.159637
    32  H   12.112236   2.769411   3.276989   9.298575   9.232004
    33  H    3.908743  10.787030  10.876362   5.852126   6.630509
    34  H    3.404516  12.465675  12.696771   6.235303   6.836957
    35  H    2.136544  12.162469  12.585892   5.048108   5.441610
    36  H    1.081210  10.097447  10.645363   2.728804   3.101472
    37  H    9.507936   1.088479   2.171305   7.008073   7.442152
    38  H   10.947177   1.088557   2.166874   8.274007   8.515835
    39  H   11.137899   2.145554   1.092370   8.854919   9.083456
    40  H   11.145652   2.172424   1.091770   8.696946   8.640115
    41  H    9.711728   2.171628   1.091638   7.482335   7.564984
    42  H    3.961683   6.596671   7.394530   1.087942   2.179281
    43  H    2.637186   8.332560   9.077801   1.089326   2.161147
    44  H    4.277702   6.962229   7.374846   2.180644   1.091404
    45  H    4.334903   7.817220   8.491761   2.143985   1.092279
    46  H    3.092709   8.640547   9.090620   2.169102   1.091545
                   26         27         28         29         30
    26  H    0.000000
    27  H    3.073410   0.000000
    28  H    2.401652   3.067468   0.000000
    29  H    6.599586   5.639125   8.215780   0.000000
    30  H    7.834688   7.676154   9.841231   2.480841   0.000000
    31  H    7.295146   8.113223   9.590471   4.296457   2.473243
    32  H    5.241588   6.792112   7.628900   4.989680   4.293754
    33  H    8.157133   7.226063   5.771496  12.778246  14.862601
    34  H    9.857812   8.247560   7.584675  13.508741  15.784567
    35  H    9.699964   7.453638   7.734972  12.190428  14.583313
    36  H    7.799238   5.238263   6.192550   9.772009  12.165665
    37  H    2.077932   4.707035   4.350350   6.502770   7.112730
    38  H    3.633467   5.841753   6.008110   5.984660   6.002727
    39  H    3.636670   6.425499   5.649910   7.610676   7.738312
    40  H    3.975913   6.121313   6.134883   6.272277   6.300895
    41  H    2.603946   5.030093   4.493564   6.773911   7.379736
    42  H    4.574759   2.041978   3.817553   6.865698   9.046113
    43  H    6.216096   3.606876   5.034222   8.114499  10.426293
    44  H    5.105394   2.221292   4.508794   6.270289   8.590457
    45  H    6.167597   3.096322   5.705836   6.183953   8.625683
    46  H    6.636482   3.728825   5.601731   7.622217  10.039114
                   31         32         33         34         35
    31  H    0.000000
    32  H    2.461786   0.000000
    33  H   15.080461  13.315582   0.000000
    34  H   16.344426  14.821502   2.479701   0.000000
    35  H   15.463757  14.239787   4.295820   2.472813   0.000000
    36  H   13.103946  11.998769   4.989844   4.292849   2.460944
    37  H    6.034122   3.737019  10.107265  11.834924  11.624541
    38  H    4.522164   2.135666  11.775656  13.436612  13.080899
    39  H    6.179672   3.798786  11.221244  13.170277  13.219050
    40  H    4.903398   2.822551  11.684173  13.441059  13.241630
    41  H    6.343110   4.184241   9.971412  11.812757  11.780884
    42  H    9.676001   8.449672   6.487013   7.092466   6.016712
    43  H   11.266580  10.156539   5.921056   5.944860   4.492146
    44  H    9.487561   8.514405   6.830981   7.327941   6.190827
    45  H    9.822186   9.121332   7.632533   7.688338   6.060697
    46  H   11.114458  10.223332   6.321727   6.237210   4.719139
                   36         37         38         39         40
    36  H    0.000000
    37  H    9.634958   0.000000
    38  H   10.970574   1.745864   0.000000
    39  H   11.368164   2.493096   2.489559   0.000000
    40  H   11.247255   3.080893   2.523809   1.768986   0.000000
    41  H    9.926847   2.530451   3.077234   1.769902   1.772337
    42  H    3.729699   6.137001   7.375772   8.138689   8.025160
    43  H    2.155651   7.856891   9.119912   9.814450   9.698288
    44  H    3.989438   6.834683   7.860770   8.277433   7.751096
    45  H    3.651952   7.665434   8.578314   9.414859   8.854914
    46  H    2.563419   8.424038   9.526599   9.957439   9.504914
                   41         42         43         44         45
    41  H    0.000000
    42  H    6.885324   0.000000
    43  H    8.502080   1.744175   0.000000
    44  H    6.688405   2.566060   3.079375   0.000000
    45  H    7.958127   2.487528   2.492555   1.770694   0.000000
    46  H    8.379356   3.082999   2.498676   1.767598   1.768937
                   46
    46  H    0.000000
 Stoichiometry    C21H21N2S2(1+)
 Framework group  C1[X(C21H21N2S2)]
 Deg. of freedom   132
 Full point group                 C1      NOp   1
 Largest Abelian subgroup         C1      NOp   1
 Largest concise Abelian subgroup C1      NOp   1
                         Standard orientation:                         
 ---------------------------------------------------------------------
 Center     Atomic      Atomic             Coordinates (Angstroms)
 Number     Number       Type             X           Y           Z
 ---------------------------------------------------------------------
      1          6           0        1.185932    1.124188    0.259065
      2          6           0       -0.064042    0.518894    0.184736
      3          6           0       -1.255062    1.232433    0.206071
      4          6           0       -2.576908    0.775971    0.134368
      5          6           0        2.392634    0.431471    0.171283
      6         16           0       -3.827667    1.970009   -0.187075
      7          6           0       -5.077877    0.744792   -0.134775
      8          6           0       -4.509195   -0.508640    0.113846
      9          7           0       -3.118372   -0.458179    0.279721
     10         16           0        2.505198   -1.300121   -0.125106
     11          6           0        4.260315   -1.225762   -0.102553
     12          6           0        4.688784    0.087010    0.119416
     13          7           0        3.627512    0.981655    0.287411
     14          6           0        5.159317   -2.267461   -0.279503
     15          6           0        6.517913   -1.973596   -0.237257
     16          6           0        6.953940   -0.663841   -0.025333
     17          6           0        6.051566    0.378213    0.153458
     18          6           0       -6.446804    0.904176   -0.304215
     19          6           0       -7.251229   -0.226106   -0.226408
     20          6           0       -6.689747   -1.482485    0.014868
     21          6           0       -5.320051   -1.640504    0.186250
     22          6           0        3.847144    2.415669    0.554580
     23          6           0        3.911762    3.249637   -0.717632
     24          6           0       -2.369369   -1.660308    0.692423
     25          6           0       -1.918854   -2.522991   -0.479110
     26          1           0        1.228852    2.199196    0.376562
     27          1           0       -0.096636   -0.556945    0.072235
     28          1           0       -1.165193    2.314370    0.224199
     29          1           0        4.813961   -3.279951   -0.448352
     30          1           0        7.240415   -2.768718   -0.373960
     31          1           0        8.015538   -0.449707   -0.002068
     32          1           0        6.406822    1.388085    0.306065
     33          1           0       -6.875736    1.880738   -0.491225
     34          1           0       -8.321880   -0.129159   -0.357431
     35          1           0       -7.330326   -2.354283    0.067360
     36          1           0       -4.901973   -2.621689    0.363736
     37          1           0        3.048585    2.754296    1.212168
     38          1           0        4.772710    2.494849    1.122044
     39          1           0        4.082538    4.295496   -0.452515
     40          1           0        4.728911    2.924468   -1.364544
     41          1           0        2.978199    3.187215   -1.279982
     42          1           0       -1.531667   -1.329317    1.302601
     43          1           0       -3.027666   -2.224702    1.351768
     44          1           0       -1.276100   -1.972556   -1.168349
     45          1           0       -1.359149   -3.379171   -0.096017
     46          1           0       -2.775672   -2.899604   -1.040801
 ---------------------------------------------------------------------
 Rotational constants (GHZ):           0.5429629           0.0715335           0.0638922
 Standard basis: 6-31G(d) (6D, 7F)
 There are   425 symmetry adapted cartesian basis functions of A   symmetry.
 There are   425 symmetry adapted basis functions of A   symmetry.
   425 basis functions,   832 primitive gaussians,   425 cartesian basis functions
    96 alpha electrons       96 beta electrons
       nuclear repulsion energy      2285.6548009337 Hartrees.
 NAtoms=   46 NActive=   46 NUniq=   46 SFac= 1.00D+00 NAtFMM=   60 NAOKFM=F Big=F
 Integral buffers will be    131072 words long.
 Raffenetti 2 integral format.
 Two-electron integral symmetry is turned on.
 ------------------------------------------------------------------------------
 Polarizable Continuum Model (PCM)
 =================================
 Model                : PCM.
 Atomic radii         : SMD-Coulomb.
 Polarization charges : Total charges.
 Charge compensation  : None.
 Solution method      : On-the-fly selection.
 Cavity type          : VdW (van der Waals Surface) (Alpha=1.000).
 Cavity algorithm     : GePol (No added spheres)
                        Default sphere list used, NSphG=   46.
                        Lebedev-Laikov grids with approx.  5.0 points / Ang**2.
                        Smoothing algorithm: York/Karplus (Gamma=1.0000).
                        Polarization charges: spherical gaussians, with
                                              point-specific exponents (IZeta= 3).
                        Self-potential: point-specific (ISelfS= 7).
                        Self-field    : sphere-specific E.n sum rule (ISelfD= 2).
 1st derivatives      : Analytical E(r).r(x)/FMM algorithm (CHGder, D1EAlg=3).
                        Cavity 1st derivative terms included.
 Solvent              : Ethanol, Eps=  24.852000 Eps(inf)=   1.852593
 ------------------------------------------------------------------------------
 ------------------------------------------------------------------------------
 Atomic radii for non-electrostatic terms: SMD-CDS.
 ------------------------------------------------------------------------------
 Nuclear repulsion after PCM non-electrostatic terms =     2285.6487450168 Hartrees.
 One-electron integrals computed using PRISM.
 NBasis=   425 RedAO= T EigKep=  4.34D-04  NBF=   425
 NBsUse=   425 1.00D-06 EigRej= -1.00D+00 NBFU=   425
 ExpMin= 1.17D-01 ExpMax= 2.19D+04 ExpMxC= 3.30D+03 IAcc=3 IRadAn=         5 AccDes= 0.00D+00
 Harris functional with IExCor=  402 and IRadAn=       5 diagonalized for initial guess.
 HarFok:  IExCor=  402 AccDes= 0.00D+00 IRadAn=         5 IDoV= 1 UseB2=F ITyADJ=14
 ICtDFT=  3500011 ScaDFX=  1.000000  1.000000  1.000000  1.000000
 FoFCou: FMM=F IPFlag=           0 FMFlag=      100000 FMFlg1=           0
         NFxFlg=           0 DoJE=T BraDBF=F KetDBF=T FulRan=T
         wScrn=  0.000000 ICntrl=       500 IOpCl=  0 I1Cent=   200000004 NGrid=           0
         NMat0=    1 NMatS0=      1 NMatT0=    0 NMatD0=    1 NMtDS0=    0 NMtDT0=    0
 Petite list used in FoFCou.
 Requested convergence on RMS density matrix=1.00D-08 within 128 cycles.
 Requested convergence on MAX density matrix=1.00D-06.
 Requested convergence on             energy=1.00D-06.
 No special actions if energy rises.
 Inv3:  Mode=1 IEnd=    37446267.
 Iteration    1 A*A^-1 deviation from unit magnitude is 3.33D-15 for   2679.
 Iteration    1 A*A^-1 deviation from orthogonality  is 2.84D-15 for   1379    606.
 Iteration    1 A^-1*A deviation from unit magnitude is 3.11D-15 for   2679.
 Iteration    1 A^-1*A deviation from orthogonality  is 1.92D-15 for   2937   2119.
 Error on total polarization charges =  0.04810
 SCF Done:  E(RB3LYP) =  -1718.65156294     A.U. after   13 cycles
            NFock= 13  Conv=0.81D-08     -V/T= 2.0067
 SMD-CDS (non-electrostatic) energy       (kcal/mol) =      -3.80
 (included in total energy above)

 **********************************************************************

            Population analysis using the SCF Density.

 **********************************************************************

 Orbital symmetries:
       Occupied  (A) (A) (A) (A) (A) (A) (A) (A) (A) (A) (A) (A)
                 (A) (A) (A) (A) (A) (A) (A) (A) (A) (A) (A) (A)
                 (A) (A) (A) (A) (A) (A) (A) (A) (A) (A) (A) (A)
                 (A) (A) (A) (A) (A) (A) (A) (A) (A) (A) (A) (A)
                 (A) (A) (A) (A) (A) (A) (A) (A) (A) (A) (A) (A)
                 (A) (A) (A) (A) (A) (A) (A) (A) (A) (A) (A) (A)
                 (A) (A) (A) (A) (A) (A) (A) (A) (A) (A) (A) (A)
                 (A) (A) (A) (A) (A) (A) (A) (A) (A) (A) (A) (A)
       Virtual   (A) (A) (A) (A) (A) (A) (A) (A) (A) (A) (A) (A)
                 (A) (A) (A) (A) (A) (A) (A) (A) (A) (A) (A) (A)
                 (A) (A) (A) (A) (A) (A) (A) (A) (A) (A) (A) (A)
                 (A) (A) (A) (A) (A) (A) (A) (A) (A) (A) (A) (A)
                 (A) (A) (A) (A) (A) (A) (A) (A) (A) (A) (A) (A)
                 (A) (A) (A) (A) (A) (A) (A) (A) (A) (A) (A) (A)
                 (A) (A) (A) (A) (A) (A) (A) (A) (A) (A) (A) (A)
                 (A) (A) (A) (A) (A) (A) (A) (A) (A) (A) (A) (A)
                 (A) (A) (A) (A) (A) (A) (A) (A) (A) (A) (A) (A)
                 (A) (A) (A) (A) (A) (A) (A) (A) (A) (A) (A) (A)
                 (A) (A) (A) (A) (A) (A) (A) (A) (A) (A) (A) (A)
                 (A) (A) (A) (A) (A) (A) (A) (A) (A) (A) (A) (A)
                 (A) (A) (A) (A) (A) (A) (A) (A) (A) (A) (A) (A)
                 (A) (A) (A) (A) (A) (A) (A) (A) (A) (A) (A) (A)
                 (A) (A) (A) (A) (A) (A) (A) (A) (A) (A) (A) (A)
                 (A) (A) (A) (A) (A) (A) (A) (A) (A) (A) (A) (A)
                 (A) (A) (A) (A) (A) (A) (A) (A) (A) (A) (A) (A)
                 (A) (A) (A) (A) (A) (A) (A) (A) (A) (A) (A) (A)
                 (A) (A) (A) (A) (A) (A) (A) (A) (A) (A) (A) (A)
                 (A) (A) (A) (A) (A) (A) (A) (A) (A) (A) (A) (A)
                 (A) (A) (A) (A) (A) (A) (A) (A) (A) (A) (A) (A)
                 (A) (A) (A) (A) (A) (A) (A) (A) (A) (A) (A) (A)
                 (A) (A) (A) (A) (A) (A) (A) (A) (A) (A) (A) (A)
                 (A) (A) (A) (A) (A) (A) (A) (A) (A) (A) (A) (A)
                 (A) (A) (A) (A) (A) (A) (A) (A) (A) (A) (A) (A)
                 (A) (A) (A) (A) (A) (A) (A) (A) (A) (A) (A) (A)
                 (A) (A) (A) (A) (A) (A) (A) (A) (A) (A) (A) (A)
                 (A) (A) (A) (A) (A)
 The electronic state is 1-A.
 Alpha  occ. eigenvalues --  -88.93195 -88.93059 -14.42306 -14.41914 -10.29887
 Alpha  occ. eigenvalues --  -10.29500 -10.25473 -10.25345 -10.24168 -10.24085
 Alpha  occ. eigenvalues --  -10.23713 -10.23490 -10.22557 -10.20872 -10.20804
 Alpha  occ. eigenvalues --  -10.20617 -10.20568 -10.20508 -10.20134 -10.20091
 Alpha  occ. eigenvalues --  -10.20000 -10.19931 -10.19827 -10.18274 -10.18090
 Alpha  occ. eigenvalues --   -7.99354  -7.99214  -5.95799  -5.95667  -5.95430
 Alpha  occ. eigenvalues --   -5.95298  -5.94952  -5.94797  -1.02312  -1.02132
 Alpha  occ. eigenvalues --   -0.87949  -0.87835  -0.85575  -0.84709  -0.82179
 Alpha  occ. eigenvalues --   -0.79034  -0.77627  -0.77354  -0.75895  -0.75061
 Alpha  occ. eigenvalues --   -0.74344  -0.71077  -0.66419  -0.66085  -0.65834
 Alpha  occ. eigenvalues --   -0.63612  -0.62260  -0.61315  -0.60170  -0.57537
 Alpha  occ. eigenvalues --   -0.57061  -0.53466  -0.52891  -0.52791  -0.50704
 Alpha  occ. eigenvalues --   -0.49969  -0.47811  -0.47472  -0.47415  -0.46832
 Alpha  occ. eigenvalues --   -0.46418  -0.46094  -0.45507  -0.45150  -0.44064
 Alpha  occ. eigenvalues --   -0.43668  -0.42264  -0.41547  -0.40699  -0.40491
 Alpha  occ. eigenvalues --   -0.39784  -0.39474  -0.38709  -0.38306  -0.37553
 Alpha  occ. eigenvalues --   -0.37429  -0.37155  -0.36785  -0.36462  -0.35967
 Alpha  occ. eigenvalues --   -0.35661  -0.35410  -0.35260  -0.32496  -0.31951
 Alpha  occ. eigenvalues --   -0.31769  -0.28172  -0.25249  -0.25179  -0.25074
 Alpha  occ. eigenvalues --   -0.19370
 Alpha virt. eigenvalues --   -0.08944  -0.01830  -0.01699  -0.01393  -0.00862
 Alpha virt. eigenvalues --   -0.00250  -0.00064   0.02000   0.06119   0.07119
 Alpha virt. eigenvalues --    0.07962   0.08968   0.10012   0.11186   0.12062
 Alpha virt. eigenvalues --    0.12136   0.13276   0.13376   0.14006   0.14317
 Alpha virt. eigenvalues --    0.14792   0.15385   0.15683   0.15924   0.15993
 Alpha virt. eigenvalues --    0.16361   0.16528   0.17212   0.17891   0.18240
 Alpha virt. eigenvalues --    0.19144   0.19208   0.19541   0.20290   0.20499
 Alpha virt. eigenvalues --    0.20827   0.21298   0.22679   0.23113   0.23432
 Alpha virt. eigenvalues --    0.24324   0.25532   0.26293   0.26850   0.27238
 Alpha virt. eigenvalues --    0.27780   0.30450   0.31363   0.31680   0.32556
 Alpha virt. eigenvalues --    0.33700   0.34136   0.34624   0.34852   0.35922
 Alpha virt. eigenvalues --    0.36725   0.38067   0.38377   0.38716   0.40691
 Alpha virt. eigenvalues --    0.43163   0.45282   0.46681   0.48094   0.48615
 Alpha virt. eigenvalues --    0.49058   0.49288   0.50541   0.50944   0.51555
 Alpha virt. eigenvalues --    0.51780   0.53024   0.53581   0.53800   0.54054
 Alpha virt. eigenvalues --    0.55167   0.55700   0.56336   0.56517   0.57136
 Alpha virt. eigenvalues --    0.57361   0.57652   0.58136   0.58407   0.58665
 Alpha virt. eigenvalues --    0.58912   0.59577   0.59977   0.60091   0.60374
 Alpha virt. eigenvalues --    0.60477   0.60764   0.61133   0.61465   0.61761
 Alpha virt. eigenvalues --    0.63693   0.64134   0.64548   0.65666   0.65936
 Alpha virt. eigenvalues --    0.66286   0.68752   0.69460   0.70126   0.71358
 Alpha virt. eigenvalues --    0.71846   0.72677   0.73675   0.75367   0.75860
 Alpha virt. eigenvalues --    0.76851   0.77871   0.79547   0.80912   0.81348
 Alpha virt. eigenvalues --    0.82222   0.82689   0.82956   0.83474   0.84198
 Alpha virt. eigenvalues --    0.84944   0.85165   0.85822   0.86453   0.86600
 Alpha virt. eigenvalues --    0.87415   0.88085   0.88758   0.89036   0.89189
 Alpha virt. eigenvalues --    0.89740   0.90027   0.90294   0.91229   0.91252
 Alpha virt. eigenvalues --    0.92314   0.92409   0.93692   0.94779   0.95155
 Alpha virt. eigenvalues --    0.95316   0.96172   0.96789   0.97950   0.98238
 Alpha virt. eigenvalues --    0.98775   0.99071   1.00026   1.00283   1.00963
 Alpha virt. eigenvalues --    1.01449   1.01698   1.01808   1.02900   1.03978
 Alpha virt. eigenvalues --    1.04918   1.05519   1.08532   1.08712   1.10670
 Alpha virt. eigenvalues --    1.11111   1.12231   1.14176   1.15546   1.15763
 Alpha virt. eigenvalues --    1.18628   1.19737   1.21026   1.21682   1.22969
 Alpha virt. eigenvalues --    1.23434   1.24098   1.26180   1.27758   1.29037
 Alpha virt. eigenvalues --    1.30813   1.31517   1.33976   1.37055   1.38339
 Alpha virt. eigenvalues --    1.39282   1.39537   1.40902   1.41115   1.41618
 Alpha virt. eigenvalues --    1.42221   1.42333   1.42712   1.46435   1.46589
 Alpha virt. eigenvalues --    1.47864   1.48392   1.48435   1.50289   1.52007
 Alpha virt. eigenvalues --    1.53855   1.54043   1.54810   1.55574   1.57319
 Alpha virt. eigenvalues --    1.58351   1.59854   1.64499   1.65948   1.68514
 Alpha virt. eigenvalues --    1.70669   1.71754   1.76305   1.78513   1.78936
 Alpha virt. eigenvalues --    1.79201   1.81409   1.83075   1.83738   1.84465
 Alpha virt. eigenvalues --    1.85643   1.86048   1.87112   1.88813   1.89429
 Alpha virt. eigenvalues --    1.89926   1.91443   1.92594   1.93338   1.93780
 Alpha virt. eigenvalues --    1.94207   1.94942   1.95745   1.96715   1.97070
 Alpha virt. eigenvalues --    1.99342   2.01137   2.01358   2.02147   2.05048
 Alpha virt. eigenvalues --    2.06178   2.08278   2.08573   2.09180   2.12012
 Alpha virt. eigenvalues --    2.13220   2.13246   2.13766   2.13889   2.14439
 Alpha virt. eigenvalues --    2.15447   2.18044   2.18564   2.19368   2.21390
 Alpha virt. eigenvalues --    2.22393   2.22775   2.23455   2.25782   2.26313
 Alpha virt. eigenvalues --    2.28365   2.28950   2.29260   2.29705   2.30866
 Alpha virt. eigenvalues --    2.31422   2.32403   2.32461   2.35041   2.36943
 Alpha virt. eigenvalues --    2.38790   2.42677   2.44765   2.46360   2.47896
 Alpha virt. eigenvalues --    2.49282   2.50305   2.50859   2.52781   2.55828
 Alpha virt. eigenvalues --    2.57298   2.57920   2.60240   2.60989   2.61498
 Alpha virt. eigenvalues --    2.62879   2.66122   2.66529   2.68304   2.69151
 Alpha virt. eigenvalues --    2.69541   2.71925   2.72740   2.73722   2.75623
 Alpha virt. eigenvalues --    2.76244   2.79517   2.87290   2.88604   2.90749
 Alpha virt. eigenvalues --    2.91817   2.95513   3.02891   3.05777   3.15337
 Alpha virt. eigenvalues --    3.21245   3.23126   3.40876   3.41281   3.93980
 Alpha virt. eigenvalues --    3.94424   4.05976   4.07538   4.08008   4.08103
 Alpha virt. eigenvalues --    4.09610   4.11207   4.11582   4.12473   4.15340
 Alpha virt. eigenvalues --    4.18391   4.25806   4.27932   4.28879   4.33648
 Alpha virt. eigenvalues --    4.35177   4.36844   4.38506   4.47289   4.47505
 Alpha virt. eigenvalues --    4.50424   4.58130   4.71484   4.71880
          Condensed to atoms (all electrons):
               1          2          3          4          5          6
     1  C    5.074020   0.499052  -0.019517   0.003619   0.442938  -0.000080
     2  C    0.499052   4.833876   0.506095  -0.015987   0.000460   0.003492
     3  C   -0.019517   0.506095   5.053323   0.467555   0.002888  -0.053280
     4  C    0.003619  -0.015987   0.467555   4.893983  -0.000300   0.300105
     5  C    0.442938   0.000460   0.002888  -0.000300   4.931977   0.000004
     6  S   -0.000080   0.003492  -0.053280   0.300105   0.000004  15.384370
     7  C    0.000001  -0.000080   0.002290  -0.024460  -0.000000   0.265807
     8  C    0.000003  -0.000121   0.003945  -0.051034  -0.000000  -0.065183
     9  N    0.000149  -0.010899  -0.045137   0.354675   0.000003  -0.073190
    10  S   -0.075250   0.000211   0.000758   0.000002   0.312576  -0.000001
    11  C    0.003836   0.000020  -0.000004   0.000000  -0.022064   0.000000
    12  C    0.004960  -0.000055   0.000000  -0.000000  -0.052784   0.000000
    13  N   -0.036602   0.002806  -0.000098   0.000001   0.343439  -0.000000
    14  C   -0.000114   0.000004   0.000000  -0.000000   0.001414   0.000000
    15  C    0.000003  -0.000000  -0.000000   0.000000  -0.000033  -0.000000
    16  C    0.000001  -0.000000   0.000000   0.000000   0.000015  -0.000000
    17  C   -0.000252   0.000001  -0.000000   0.000000   0.005874  -0.000000
    18  C   -0.000000   0.000001  -0.000077   0.001622  -0.000000  -0.054760
    19  C    0.000000  -0.000000   0.000002  -0.000061   0.000000   0.003741
    20  C   -0.000000  -0.000000   0.000002   0.000028   0.000000   0.000404
    21  C   -0.000000  -0.000000  -0.000248   0.005329  -0.000000   0.007395
    22  C    0.000383   0.000330  -0.000003  -0.000000  -0.048121   0.000000
    23  C   -0.001387   0.000014   0.000001  -0.000000  -0.000537  -0.000000
    24  C    0.000236   0.000995  -0.006752  -0.037570  -0.000001   0.004372
    25  C    0.000127  -0.003323   0.000262   0.001045  -0.000011  -0.000254
    26  H    0.371836  -0.042776  -0.005541   0.000391  -0.042982  -0.000002
    27  H   -0.051056   0.361407  -0.048357  -0.006378  -0.007508   0.000010
    28  H   -0.007941  -0.042634   0.370657  -0.040828   0.000449  -0.002087
    29  H   -0.000000   0.000000   0.000000   0.000000   0.000014  -0.000000
    30  H   -0.000000   0.000000   0.000000  -0.000000  -0.000000  -0.000000
    31  H   -0.000000  -0.000000  -0.000000   0.000000   0.000002  -0.000000
    32  H    0.000003   0.000000   0.000000   0.000000  -0.000127  -0.000000
    33  H    0.000000   0.000000   0.000001   0.000015   0.000000  -0.002309
    34  H   -0.000000   0.000000  -0.000000   0.000000  -0.000000  -0.000135
    35  H    0.000000  -0.000000  -0.000000   0.000002  -0.000000   0.000019
    36  H   -0.000000  -0.000000   0.000005  -0.000119   0.000000  -0.000292
    37  H    0.005702   0.000374  -0.000026  -0.000000  -0.007861   0.000000
    38  H    0.000087  -0.000011   0.000000   0.000000   0.004920  -0.000000
    39  H   -0.000030   0.000000   0.000000   0.000000  -0.000084  -0.000000
    40  H    0.000024   0.000001  -0.000000  -0.000000  -0.000102   0.000000
    41  H    0.001285  -0.000082  -0.000009  -0.000000   0.002806   0.000000
    42  H    0.000120   0.004734   0.002610  -0.002884  -0.000044   0.000112
    43  H   -0.000006   0.000163   0.000278   0.003650  -0.000000  -0.000212
    44  H    0.000054   0.000145  -0.000265   0.001950  -0.000021  -0.000078
    45  H   -0.000002   0.000070  -0.000019  -0.000109  -0.000002   0.000006
    46  H   -0.000001   0.000060   0.000001  -0.000120   0.000000   0.000012
               7          8          9         10         11         12
     1  C    0.000001   0.000003   0.000149  -0.075250   0.003836   0.004960
     2  C   -0.000080  -0.000121  -0.010899   0.000211   0.000020  -0.000055
     3  C    0.002290   0.003945  -0.045137   0.000758  -0.000004   0.000000
     4  C   -0.024460  -0.051034   0.354675   0.000002   0.000000  -0.000000
     5  C   -0.000000  -0.000000   0.000003   0.312576  -0.022064  -0.052784
     6  S    0.265807  -0.065183  -0.073190  -0.000001   0.000000   0.000000
     7  C    5.158947   0.490008  -0.054632   0.000000   0.000000   0.000000
     8  C    0.490008   4.584858   0.272505   0.000000  -0.000000  -0.000000
     9  N   -0.054632   0.272505   6.980849   0.000005   0.000000  -0.000000
    10  S    0.000000   0.000000   0.000005  15.382081   0.262013  -0.063825
    11  C    0.000000  -0.000000   0.000000   0.262013   5.163359   0.488968
    12  C    0.000000  -0.000000  -0.000000  -0.063825   0.488968   4.580039
    13  N   -0.000000   0.000000   0.000000  -0.069398  -0.057459   0.271178
    14  C    0.000000   0.000000   0.000000  -0.055276   0.505396  -0.006617
    15  C    0.000000  -0.000000  -0.000000   0.003658  -0.033554  -0.038517
    16  C    0.000000  -0.000000  -0.000000   0.000424  -0.041949  -0.004322
    17  C    0.000000  -0.000000   0.000000   0.007249  -0.073504   0.513491
    18  C    0.502860  -0.006482   0.007336  -0.000000   0.000000   0.000000
    19  C   -0.033546  -0.038521   0.000147   0.000000  -0.000000  -0.000000
    20  C   -0.041977  -0.004504   0.004864  -0.000000   0.000000  -0.000000
    21  C   -0.072660   0.511887  -0.068826  -0.000000   0.000000   0.000000
    22  C    0.000000   0.000000  -0.000000   0.004453   0.006095  -0.036701
    23  C   -0.000000   0.000000   0.000000  -0.000165  -0.000357  -0.000768
    24  C    0.005986  -0.037710   0.273015  -0.000153  -0.000000   0.000000
    25  C   -0.000352  -0.001613  -0.052077   0.000164   0.000001  -0.000000
    26  H    0.000000  -0.000000  -0.000002   0.003508   0.000023  -0.000138
    27  H    0.000000  -0.000061   0.000136   0.008660   0.000030  -0.000008
    28  H    0.000168  -0.000062   0.003948   0.000031   0.000000  -0.000000
    29  H    0.000000   0.000000   0.000000  -0.002143  -0.042770   0.003284
    30  H   -0.000000   0.000000   0.000000  -0.000135   0.004776   0.000595
    31  H    0.000000  -0.000000  -0.000000   0.000019   0.000822   0.003249
    32  H    0.000000   0.000000   0.000000  -0.000290   0.005643  -0.035996
    33  H   -0.042278   0.003316  -0.000113  -0.000000   0.000000  -0.000000
    34  H    0.004785   0.000601   0.000002   0.000000  -0.000000  -0.000000
    35  H    0.000822   0.003253  -0.000095   0.000000   0.000000   0.000000
    36  H    0.005636  -0.035613  -0.008539  -0.000000  -0.000000  -0.000000
    37  H    0.000000  -0.000000   0.000000  -0.000011  -0.000236   0.003902
    38  H    0.000000  -0.000000   0.000000  -0.000221   0.000064  -0.007413
    39  H    0.000000  -0.000000   0.000000   0.000004   0.000006  -0.000035
    40  H   -0.000000  -0.000000   0.000000   0.000008  -0.000098   0.002436
    41  H   -0.000000  -0.000000   0.000000  -0.000092   0.000001  -0.000116
    42  H   -0.000190   0.003852  -0.037260   0.000184  -0.000000  -0.000000
    43  H    0.000132  -0.006298  -0.034873   0.000004   0.000000  -0.000000
    44  H    0.000002  -0.000018  -0.003250   0.000383   0.000001  -0.000000
    45  H    0.000006   0.000005   0.003782   0.000234   0.000000  -0.000000
    46  H   -0.000079   0.002052  -0.003758  -0.000004  -0.000000   0.000000
              13         14         15         16         17         18
     1  C   -0.036602  -0.000114   0.000003   0.000001  -0.000252  -0.000000
     2  C    0.002806   0.000004  -0.000000  -0.000000   0.000001   0.000001
     3  C   -0.000098   0.000000  -0.000000   0.000000  -0.000000  -0.000077
     4  C    0.000001  -0.000000   0.000000   0.000000   0.000000   0.001622
     5  C    0.343439   0.001414  -0.000033   0.000015   0.005874  -0.000000
     6  S   -0.000000   0.000000  -0.000000  -0.000000  -0.000000  -0.054760
     7  C   -0.000000   0.000000   0.000000   0.000000   0.000000   0.502860
     8  C    0.000000   0.000000  -0.000000  -0.000000  -0.000000  -0.006482
     9  N    0.000000   0.000000  -0.000000  -0.000000   0.000000   0.007336
    10  S   -0.069398  -0.055276   0.003658   0.000424   0.007249  -0.000000
    11  C   -0.057459   0.505396  -0.033554  -0.041949  -0.073504   0.000000
    12  C    0.271178  -0.006617  -0.038517  -0.004322   0.513491   0.000000
    13  N    6.983062   0.007488   0.000143   0.004912  -0.068352  -0.000000
    14  C    0.007488   4.954790   0.529404  -0.025780  -0.045838  -0.000000
    15  C    0.000143   0.529404   4.877100   0.535367  -0.037888   0.000000
    16  C    0.004912  -0.025780   0.535367   4.886293   0.520534   0.000000
    17  C   -0.068352  -0.045838  -0.037888   0.520534   5.014737  -0.000000
    18  C   -0.000000  -0.000000   0.000000   0.000000  -0.000000   4.953795
    19  C    0.000000   0.000000   0.000000   0.000000   0.000000   0.530690
    20  C   -0.000000   0.000000   0.000000   0.000000   0.000000  -0.025664
    21  C   -0.000000  -0.000000   0.000000  -0.000000   0.000000  -0.046277
    22  C    0.276849  -0.000059  -0.000006   0.000214  -0.001385   0.000000
    23  C   -0.053589   0.000000   0.000001  -0.000003  -0.000279  -0.000000
    24  C   -0.000000  -0.000000   0.000000  -0.000000   0.000000  -0.000068
    25  C   -0.000000   0.000000  -0.000000   0.000000  -0.000000   0.000001
    26  H   -0.008591   0.000001  -0.000000   0.000000  -0.000000   0.000000
    27  H    0.000186   0.000002  -0.000000   0.000000  -0.000000  -0.000000
    28  H    0.000002   0.000000  -0.000000   0.000000   0.000000  -0.000001
    29  H   -0.000109   0.367122  -0.034167   0.004217   0.000607  -0.000000
    30  H    0.000002  -0.041264   0.368869  -0.039370   0.004752   0.000000
    31  H   -0.000095   0.004709  -0.038492   0.365741  -0.037955   0.000000
    32  H   -0.008295   0.000300   0.004042  -0.037536   0.357294   0.000000
    33  H   -0.000000   0.000000   0.000000   0.000000   0.000000   0.367118
    34  H    0.000000   0.000000   0.000000   0.000000   0.000000  -0.041151
    35  H   -0.000000  -0.000000   0.000000   0.000000   0.000000   0.004690
    36  H    0.000000   0.000000  -0.000000  -0.000000   0.000000   0.000293
    37  H   -0.033280   0.000002   0.000000  -0.000007   0.000160  -0.000000
    38  H   -0.032920  -0.000003  -0.000008   0.000218   0.005091  -0.000000
    39  H    0.003914   0.000000  -0.000000  -0.000000  -0.000063   0.000000
    40  H   -0.003927  -0.000004   0.000003  -0.000053   0.001286  -0.000000
    41  H   -0.004401  -0.000000  -0.000000   0.000001   0.000015  -0.000000
    42  H    0.000000  -0.000000   0.000000   0.000000  -0.000000   0.000003
    43  H   -0.000000  -0.000000   0.000000   0.000000  -0.000000  -0.000013
    44  H   -0.000000  -0.000000  -0.000000   0.000000  -0.000000  -0.000000
    45  H   -0.000000  -0.000000  -0.000000   0.000000  -0.000000  -0.000000
    46  H    0.000000   0.000000  -0.000000  -0.000000  -0.000000  -0.000004
              19         20         21         22         23         24
     1  C    0.000000  -0.000000  -0.000000   0.000383  -0.001387   0.000236
     2  C   -0.000000  -0.000000  -0.000000   0.000330   0.000014   0.000995
     3  C    0.000002   0.000002  -0.000248  -0.000003   0.000001  -0.006752
     4  C   -0.000061   0.000028   0.005329  -0.000000  -0.000000  -0.037570
     5  C    0.000000   0.000000  -0.000000  -0.048121  -0.000537  -0.000001
     6  S    0.003741   0.000404   0.007395   0.000000  -0.000000   0.004372
     7  C   -0.033546  -0.041977  -0.072660   0.000000  -0.000000   0.005986
     8  C   -0.038521  -0.004504   0.511887   0.000000   0.000000  -0.037710
     9  N    0.000147   0.004864  -0.068826  -0.000000   0.000000   0.273015
    10  S    0.000000  -0.000000  -0.000000   0.004453  -0.000165  -0.000153
    11  C   -0.000000   0.000000   0.000000   0.006095  -0.000357  -0.000000
    12  C   -0.000000  -0.000000   0.000000  -0.036701  -0.000768   0.000000
    13  N    0.000000  -0.000000  -0.000000   0.276849  -0.053589  -0.000000
    14  C    0.000000   0.000000  -0.000000  -0.000059   0.000000  -0.000000
    15  C    0.000000   0.000000   0.000000  -0.000006   0.000001   0.000000
    16  C    0.000000   0.000000  -0.000000   0.000214  -0.000003  -0.000000
    17  C    0.000000   0.000000   0.000000  -0.001385  -0.000279   0.000000
    18  C    0.530690  -0.025664  -0.046277   0.000000  -0.000000  -0.000068
    19  C    4.874480   0.533965  -0.037458  -0.000000  -0.000000  -0.000001
    20  C    0.533965   4.885806   0.522188   0.000000   0.000000   0.000160
    21  C   -0.037458   0.522188   5.012080  -0.000000   0.000000  -0.001102
    22  C   -0.000000   0.000000  -0.000000   4.930762   0.370308   0.000000
    23  C   -0.000000   0.000000   0.000000   0.370308   5.098843  -0.000000
    24  C   -0.000001   0.000160  -0.001102   0.000000  -0.000000   4.952516
    25  C    0.000000   0.000032  -0.000766  -0.000000   0.000000   0.368189
    26  H    0.000000  -0.000000   0.000000   0.004207  -0.000474  -0.000001
    27  H    0.000000  -0.000000   0.000000   0.000003  -0.000002   0.001156
    28  H    0.000000  -0.000000   0.000003  -0.000004  -0.000002  -0.000118
    29  H    0.000000  -0.000000  -0.000000   0.000001  -0.000000  -0.000000
    30  H    0.000000   0.000000  -0.000000  -0.000000   0.000000  -0.000000
    31  H    0.000000   0.000000   0.000000   0.000001  -0.000001   0.000000
    32  H    0.000000   0.000000  -0.000000   0.002247  -0.000094  -0.000000
    33  H   -0.034292   0.004222   0.000598   0.000000  -0.000000   0.000001
    34  H    0.368825  -0.039265   0.004748   0.000000  -0.000000  -0.000000
    35  H   -0.038338   0.365792  -0.037832  -0.000000   0.000000   0.000002
    36  H    0.004021  -0.037251   0.356969   0.000000   0.000000   0.002736
    37  H    0.000000   0.000000  -0.000000   0.377877  -0.039457   0.000000
    38  H    0.000000   0.000000  -0.000000   0.377658  -0.039037  -0.000000
    39  H   -0.000000  -0.000000   0.000000  -0.027466   0.370608  -0.000000
    40  H    0.000000   0.000000  -0.000000  -0.031601   0.379239  -0.000000
    41  H    0.000000   0.000000  -0.000000  -0.032352   0.379440  -0.000000
    42  H    0.000000  -0.000007   0.000191   0.000000  -0.000000   0.376495
    43  H   -0.000010   0.000183   0.005322   0.000000  -0.000000   0.376205
    44  H   -0.000000   0.000000   0.000020   0.000000   0.000000  -0.034104
    45  H    0.000000  -0.000001  -0.000075   0.000000   0.000000  -0.027551
    46  H    0.000003  -0.000052   0.001485  -0.000000  -0.000000  -0.031619
              25         26         27         28         29         30
     1  C    0.000127   0.371836  -0.051056  -0.007941  -0.000000  -0.000000
     2  C   -0.003323  -0.042776   0.361407  -0.042634   0.000000   0.000000
     3  C    0.000262  -0.005541  -0.048357   0.370657   0.000000   0.000000
     4  C    0.001045   0.000391  -0.006378  -0.040828   0.000000  -0.000000
     5  C   -0.000011  -0.042982  -0.007508   0.000449   0.000014  -0.000000
     6  S   -0.000254  -0.000002   0.000010  -0.002087  -0.000000  -0.000000
     7  C   -0.000352   0.000000   0.000000   0.000168   0.000000  -0.000000
     8  C   -0.001613  -0.000000  -0.000061  -0.000062   0.000000   0.000000
     9  N   -0.052077  -0.000002   0.000136   0.003948   0.000000   0.000000
    10  S    0.000164   0.003508   0.008660   0.000031  -0.002143  -0.000135
    11  C    0.000001   0.000023   0.000030   0.000000  -0.042770   0.004776
    12  C   -0.000000  -0.000138  -0.000008  -0.000000   0.003284   0.000595
    13  N   -0.000000  -0.008591   0.000186   0.000002  -0.000109   0.000002
    14  C    0.000000   0.000001   0.000002   0.000000   0.367122  -0.041264
    15  C   -0.000000  -0.000000  -0.000000  -0.000000  -0.034167   0.368869
[...]
    43  H   -0.000009   0.000166   0.005216   0.000000  -0.000000   0.375866
    44  H   -0.000000   0.000000   0.000021   0.000000   0.000000  -0.033944
    45  H    0.000000  -0.000001  -0.000073   0.000000   0.000000  -0.027484
    46  H    0.000003  -0.000048   0.001513  -0.000000  -0.000000  -0.031585
              25         26         27         28         29         30
     1  C    0.000120   0.371650  -0.049979  -0.007659   0.000000  -0.000000
     2  C   -0.003264  -0.042403   0.361030  -0.042342   0.000000   0.000000
     3  C    0.000256  -0.005331  -0.047341   0.370571   0.000000   0.000000
     4  C    0.001052   0.000383  -0.006086  -0.040415   0.000000  -0.000000
     5  C   -0.000010  -0.042590  -0.007248   0.000438   0.000013  -0.000000
     6  S   -0.000249  -0.000002   0.000007  -0.001913  -0.000000  -0.000000
     7  C   -0.000339   0.000000   0.000000   0.000158   0.000000  -0.000000
     8  C   -0.001671  -0.000000  -0.000059  -0.000064   0.000000   0.000000
     9  N   -0.052104  -0.000002   0.000152   0.003825   0.000000   0.000000
    10  S    0.000151   0.003414   0.008501   0.000030  -0.002041  -0.000130
    11  C    0.000001   0.000021   0.000027   0.000000  -0.042177   0.004655
    12  C   -0.000000  -0.000126  -0.000007  -0.000000   0.003191   0.000561
    13  N   -0.000000  -0.008296   0.000168   0.000002  -0.000106   0.000002
    14  C    0.000000   0.000001   0.000002   0.000000   0.366708  -0.040803
    15  C   -0.000000  -0.000000  -0.000000  -0.000000  -0.033640   0.368497
    16  C    0.000000   0.000000   0.000000   0.000000   0.004087  -0.038864
    17  C   -0.000000  -0.000000  -0.000000   0.000000   0.000575   0.004618
    18  C    0.000001   0.000000  -0.000000  -0.000001  -0.000000   0.000000
    19  C    0.000000   0.000000   0.000000   0.000000   0.000000   0.000000
    20  C    0.000035  -0.000000  -0.000000  -0.000000  -0.000000   0.000000
    21  C   -0.000812   0.000000   0.000000   0.000002  -0.000000  -0.000000
    22  C   -0.000000   0.003955   0.000003  -0.000004   0.000001  -0.000000
    23  C    0.000000  -0.000402  -0.000001  -0.000002  -0.000000   0.000000
    24  C    0.366821  -0.000001   0.000920  -0.000114  -0.000000  -0.000000
    25  C    5.111493  -0.000001   0.001157  -0.000012   0.000000  -0.000000
    26  H   -0.000001   0.508555   0.004213   0.004624  -0.000000   0.000000
    27  H    0.001157   0.004213   0.531898   0.004658   0.000000   0.000000
    28  H   -0.000012   0.004624   0.004658   0.521640   0.000000   0.000000
    29  H    0.000000  -0.000000   0.000000   0.000000   0.517869  -0.004734
    30  H   -0.000000   0.000000   0.000000   0.000000  -0.004734   0.537119
    31  H    0.000000  -0.000000  -0.000000  -0.000000  -0.000142  -0.004842
    32  H    0.000000  -0.000000   0.000000  -0.000000   0.000013  -0.000134
    33  H   -0.000000  -0.000000   0.000000   0.000000   0.000000   0.000000
    34  H    0.000000  -0.000000  -0.000000  -0.000000   0.000000   0.000000
    35  H   -0.000001   0.000000   0.000000   0.000000  -0.000000   0.000000
    36  H   -0.000335  -0.000000  -0.000000   0.000000   0.000000   0.000000
    37  H    0.000000   0.001516   0.000001   0.000003  -0.000000  -0.000000
    38  H    0.000000   0.000103   0.000000   0.000000   0.000000  -0.000000
    39  H    0.000000   0.000006   0.000000   0.000000   0.000000  -0.000000
    40  H   -0.000000  -0.000047  -0.000000   0.000000  -0.000000  -0.000000
    41  H   -0.000000   0.001569   0.000002   0.000000   0.000000  -0.000000
    42  H   -0.040450   0.000000  -0.000572  -0.000017   0.000000   0.000000
    43  H   -0.040235   0.000000   0.000206   0.000004  -0.000000  -0.000000
    44  H    0.377807   0.000001   0.003226  -0.000004   0.000000   0.000000
    45  H    0.369663   0.000000  -0.000060   0.000000   0.000000  -0.000000
    46  H    0.376838   0.000000  -0.000128   0.000000   0.000000   0.000000
              31         32         33         34         35         36
     1  C   -0.000000   0.000003   0.000000  -0.000000   0.000000  -0.000000
     2  C   -0.000000   0.000000   0.000000   0.000000  -0.000000  -0.000000
     3  C   -0.000000   0.000000   0.000001  -0.000000  -0.000000   0.000005
     4  C    0.000000   0.000000   0.000014   0.000000   0.000002  -0.000114
     5  C    0.000002  -0.000121   0.000000  -0.000000  -0.000000   0.000000
     6  S   -0.000000  -0.000000  -0.002204  -0.000130   0.000018  -0.000278
     7  C    0.000000   0.000000  -0.041680   0.004666   0.000782   0.005428
     8  C   -0.000000   0.000000   0.003223   0.000565   0.003181  -0.035262
     9  N   -0.000000   0.000000  -0.000109   0.000002  -0.000091  -0.008256
    10  S    0.000018  -0.000277  -0.000000   0.000000   0.000000  -0.000000
    11  C    0.000783   0.005431   0.000000  -0.000000   0.000000  -0.000000
    12  C    0.003179  -0.035665  -0.000000  -0.000000   0.000000  -0.000000
    13  N   -0.000092  -0.008014   0.000000   0.000000  -0.000000   0.000000
    14  C    0.004569   0.000277   0.000000   0.000000  -0.000000   0.000000
    15  C   -0.037979   0.003931   0.000000   0.000000   0.000000  -0.000000
    16  C    0.365424  -0.037022   0.000000   0.000000   0.000000  -0.000000
    17  C   -0.037600   0.357310   0.000000   0.000000   0.000000   0.000000
    18  C    0.000000   0.000000   0.366674  -0.040685   0.004549   0.000270
    19  C    0.000000   0.000000  -0.033762   0.368455  -0.037828   0.003905
    20  C    0.000000   0.000000   0.004090  -0.038768   0.365457  -0.036722
    21  C    0.000000  -0.000000   0.000568   0.004614  -0.037479   0.356927
    22  C    0.000001   0.002242   0.000000   0.000000  -0.000000   0.000000
    23  C   -0.000001  -0.000095  -0.000000  -0.000000   0.000000   0.000000
    24  C    0.000000  -0.000000   0.000001  -0.000000   0.000002   0.002727
    25  C    0.000000   0.000000  -0.000000   0.000000  -0.000001  -0.000335
    26  H   -0.000000  -0.000000  -0.000000  -0.000000   0.000000  -0.000000
    27  H   -0.000000   0.000000   0.000000  -0.000000   0.000000  -0.000000
    28  H   -0.000000  -0.000000   0.000000  -0.000000   0.000000   0.000000
    29  H   -0.000142   0.000013   0.000000   0.000000  -0.000000   0.000000
    30  H   -0.004842  -0.000134   0.000000   0.000000   0.000000   0.000000
    31  H    0.535578  -0.004760   0.000000   0.000000   0.000000  -0.000000
    32  H   -0.004760   0.519760   0.000000   0.000000   0.000000   0.000000
    33  H    0.000000   0.000000   0.516627  -0.004718  -0.000142   0.000012
    34  H    0.000000   0.000000  -0.004718   0.535741  -0.004826  -0.000133
    35  H    0.000000   0.000000  -0.000142  -0.004826   0.534154  -0.004739
    36  H   -0.000000   0.000000   0.000012  -0.000133  -0.004739   0.517279
    37  H   -0.000000   0.000006   0.000000  -0.000000   0.000000  -0.000000
    38  H    0.000003   0.002539   0.000000   0.000000   0.000000  -0.000000
    39  H    0.000000   0.000030   0.000000  -0.000000   0.000000  -0.000000
    40  H   -0.000002   0.000918  -0.000000   0.000000   0.000000   0.000000
    41  H    0.000000  -0.000024   0.000000   0.000000  -0.000000   0.000000
    42  H   -0.000000   0.000000  -0.000000  -0.000000  -0.000000   0.000035
    43  H    0.000000  -0.000000   0.000000  -0.000000   0.000002   0.001875
    44  H    0.000000   0.000000   0.000000  -0.000000   0.000000  -0.000040
    45  H    0.000000   0.000000   0.000000  -0.000000  -0.000000   0.000062
    46  H   -0.000000   0.000000  -0.000000  -0.000000  -0.000003   0.001781
              37         38         39         40         41         42
     1  C    0.005654   0.000085  -0.000028   0.000024   0.001217   0.000105
     2  C    0.000362  -0.000011   0.000000   0.000001  -0.000076   0.004906
     3  C   -0.000026   0.000000   0.000000  -0.000000  -0.000008   0.002695
     4  C   -0.000000   0.000000   0.000000  -0.000000  -0.000000  -0.002932
     5  C   -0.007848   0.004846  -0.000083  -0.000114   0.002797  -0.000045
     6  S    0.000000  -0.000000  -0.000000   0.000000   0.000000   0.000112
     7  C    0.000000   0.000000   0.000000  -0.000000  -0.000000  -0.000185
     8  C   -0.000000  -0.000000  -0.000000  -0.000000  -0.000000   0.003816
     9  N    0.000000   0.000000   0.000000   0.000000   0.000000  -0.036989
    10  S   -0.000011  -0.000217   0.000004   0.000008  -0.000090   0.000181
    11  C   -0.000230   0.000059   0.000006  -0.000098   0.000000  -0.000000
    12  C    0.003880  -0.007277  -0.000032   0.002518  -0.000116  -0.000000
    13  N   -0.032905  -0.033043   0.003871  -0.003971  -0.004277   0.000000
    14  C    0.000002  -0.000003   0.000000  -0.000004  -0.000000  -0.000000
    15  C    0.000000  -0.000007  -0.000000   0.000003  -0.000000   0.000000
    16  C   -0.000006   0.000204  -0.000000  -0.000053   0.000001   0.000000
    17  C    0.000151   0.004988  -0.000063   0.001363   0.000016  -0.000000
    18  C   -0.000000  -0.000000   0.000000  -0.000000  -0.000000   0.000003
    19  C    0.000000   0.000000  -0.000000   0.000000   0.000000   0.000000
    20  C    0.000000   0.000000  -0.000000   0.000000   0.000000  -0.000007
    21  C   -0.000000  -0.000000   0.000000  -0.000000  -0.000000   0.000183
    22  C    0.377310   0.377258  -0.027400  -0.031626  -0.032109   0.000000
    23  C   -0.039017  -0.038839   0.370090   0.378764   0.378844  -0.000000
    24  C    0.000000  -0.000000  -0.000000  -0.000000  -0.000000   0.375949
    25  C    0.000000   0.000000   0.000000  -0.000000  -0.000000  -0.040450
    26  H    0.001516   0.000103   0.000006  -0.000047   0.001569   0.000000
    27  H    0.000001   0.000000   0.000000  -0.000000   0.000002  -0.000572
    28  H    0.000003   0.000000   0.000000   0.000000   0.000000  -0.000017
    29  H   -0.000000   0.000000   0.000000  -0.000000   0.000000   0.000000
    30  H   -0.000000  -0.000000  -0.000000  -0.000000  -0.000000   0.000000
    31  H   -0.000000   0.000003   0.000000  -0.000002   0.000000  -0.000000
    32  H    0.000006   0.002539   0.000030   0.000918  -0.000024   0.000000
    33  H    0.000000   0.000000   0.000000  -0.000000   0.000000  -0.000000
    34  H   -0.000000   0.000000  -0.000000   0.000000   0.000000  -0.000000
    35  H    0.000000   0.000000   0.000000   0.000000  -0.000000  -0.000000
    36  H   -0.000000  -0.000000  -0.000000   0.000000   0.000000   0.000035
    37  H    0.515653  -0.027916  -0.000960   0.004180  -0.004930  -0.000000
    38  H   -0.027916   0.513107  -0.001034  -0.004725   0.004155  -0.000000
    39  H   -0.000960  -0.001034   0.529904  -0.025480  -0.025453  -0.000000
    40  H    0.004180  -0.004725  -0.025480   0.531461  -0.028672   0.000000
    41  H   -0.004930   0.004155  -0.025453  -0.028672   0.531568   0.000000
    42  H   -0.000000  -0.000000  -0.000000   0.000000   0.000000   0.515493
    43  H   -0.000000  -0.000000  -0.000000   0.000000   0.000000  -0.025252
    44  H   -0.000000  -0.000000  -0.000000  -0.000000  -0.000000  -0.004494
    45  H   -0.000000  -0.000000  -0.000000   0.000000   0.000000  -0.001095
    46  H    0.000000   0.000000  -0.000000   0.000000   0.000000   0.004139
              43         44         45         46
     1  C   -0.000006   0.000055  -0.000002  -0.000001
     2  C    0.000162   0.000093   0.000067   0.000059
     3  C    0.000276  -0.000272  -0.000017   0.000001
     4  C    0.003576   0.001908  -0.000106  -0.000117
     5  C   -0.000000  -0.000020  -0.000002   0.000000
     6  S   -0.000203  -0.000074   0.000006   0.000012
     7  C    0.000130   0.000001   0.000006  -0.000077
     8  C   -0.006044  -0.000011   0.000007   0.002047
     9  N   -0.035039  -0.003139   0.003738  -0.003738
    10  S    0.000004   0.000346   0.000216  -0.000003
    11  C    0.000000   0.000001   0.000000  -0.000000
    12  C   -0.000000  -0.000000  -0.000000   0.000000
    13  N    0.000000  -0.000000  -0.000000   0.000000
    14  C   -0.000000  -0.000000  -0.000000   0.000000
    15  C    0.000000  -0.000000  -0.000000  -0.000000
    16  C    0.000000   0.000000   0.000000  -0.000000
    17  C   -0.000000  -0.000000  -0.000000  -0.000000
    18  C   -0.000013  -0.000000  -0.000000  -0.000004
    19  C   -0.000009  -0.000000   0.000000   0.000003
    20  C    0.000166   0.000000  -0.000001  -0.000048
    21  C    0.005216   0.000021  -0.000073   0.001513
    22  C    0.000000   0.000000   0.000000  -0.000000
    23  C   -0.000000   0.000000   0.000000  -0.000000
    24  C    0.375866  -0.033944  -0.027484  -0.031585
    25  C   -0.040235   0.377807   0.369663   0.376838
    26  H    0.000000   0.000001   0.000000   0.000000
    27  H    0.000206   0.003226  -0.000060  -0.000128
    28  H    0.000004  -0.000004   0.000000   0.000000
    29  H   -0.000000   0.000000   0.000000   0.000000
    30  H   -0.000000   0.000000  -0.000000   0.000000
    31  H    0.000000   0.000000   0.000000  -0.000000
    32  H   -0.000000   0.000000   0.000000   0.000000
    33  H    0.000000   0.000000   0.000000  -0.000000
    34  H   -0.000000  -0.000000  -0.000000  -0.000000
    35  H    0.000002   0.000000  -0.000000  -0.000003
    36  H    0.001875  -0.000040   0.000062   0.001781
    37  H   -0.000000  -0.000000  -0.000000   0.000000
    38  H   -0.000000  -0.000000  -0.000000   0.000000
    39  H   -0.000000  -0.000000  -0.000000  -0.000000
    40  H    0.000000  -0.000000   0.000000   0.000000
    41  H    0.000000  -0.000000   0.000000   0.000000
    42  H   -0.025252  -0.004494  -0.001095   0.004139
    43  H    0.513602   0.004130  -0.000637  -0.005000
    44  H    0.004130   0.526216  -0.025192  -0.027627
    45  H   -0.000637  -0.025192   0.526746  -0.025113
    46  H   -0.005000  -0.027627  -0.025113   0.528174
 Mulliken charges:
               1
     1  C   -0.216769
     2  C   -0.098661
     3  C   -0.231484
     4  C    0.143693
     5  C    0.131143
     6  S    0.282977
     7  C   -0.169072
     8  C    0.368387
     9  N   -0.507469
    10  S    0.281206
    11  C   -0.171021
    12  C    0.372777
    13  N   -0.515898
    14  C   -0.195059
    15  C   -0.137233
    16  C   -0.169300
    17  C   -0.166195
    18  C   -0.193535
    19  C   -0.134977
    20  C   -0.169364
    21  C   -0.163560
    22  C   -0.172693
    23  C   -0.461634
    24  C   -0.183956
    25  C   -0.465913
    26  H    0.199191
    27  H    0.195310
    28  H    0.186590
    29  H    0.190383
    30  H    0.174056
    31  H    0.175859
    32  H    0.193653
    33  H    0.191402
    34  H    0.175218
    35  H    0.176960
    36  H    0.195572
    37  H    0.205132
    38  H    0.205724
    39  H    0.176622
    40  H    0.175551
    41  H    0.175584
    42  H    0.204421
    43  H    0.207223
    44  H    0.181013
    45  H    0.179271
    46  H    0.178878
 Sum of Mulliken charges =   1.00000
 Mulliken charges with hydrogens summed into heavy atoms:
               1
     1  C   -0.017578
     2  C    0.096648
     3  C   -0.044894
     4  C    0.143693
     5  C    0.131143
     6  S    0.282977
     7  C   -0.169072
     8  C    0.368387
     9  N   -0.507469
    10  S    0.281206
    11  C   -0.171021
    12  C    0.372777
    13  N   -0.515898
    14  C   -0.004676
    15  C    0.036822
    16  C    0.006559
    17  C    0.027457
    18  C   -0.002133
    19  C    0.040241
    20  C    0.007596
    21  C    0.032012
    22  C    0.238162
    23  C    0.066123
    24  C    0.227689
    25  C    0.073249
 Electronic spatial extent (au):  <R**2>=          15660.3548
 Charge=              1.0000 electrons
 Dipole moment (field-independent basis, Debye):
    X=              1.1910    Y=              0.2264    Z=              1.2752  Tot=              1.7595
 Quadrupole moment (field-independent basis, Debye-Ang):
   XX=            -47.8060   YY=           -124.5033   ZZ=           -163.4116
   XY=             15.2906   XZ=              1.6482   YZ=              1.0167
 Traceless Quadrupole moment (field-independent basis, Debye-Ang):
   XX=             64.1010   YY=            -12.5963   ZZ=            -51.5047
   XY=             15.2906   XZ=              1.6482   YZ=              1.0167
 Octapole moment (field-independent basis, Debye-Ang**2):
  XXX=              7.3169  YYY=             -2.9425  ZZZ=              3.7028  XYY=             28.8973
  XXY=             -7.5435  XXZ=             -4.8101  XZZ=              2.5223  YZZ=              2.6490
  YYZ=              4.3985  XYZ=             28.3024
 Hexadecapole moment (field-independent basis, Debye-Ang**3):
 XXXX=         -13321.9834 YYYY=          -2302.1673 ZZZZ=           -307.8126 XXXY=             93.6080
 XXXZ=            158.7016 YYYX=             83.9428 YYYZ=             16.7483 ZZZX=             -0.6234
 ZZZY=             -2.0658 XXYY=          -2844.3791 XXZZ=          -3354.9859 YYZZ=           -487.3195
 XXYZ=             22.1918 YYXZ=            -11.6599 ZZXY=             35.9860
 N-N= 2.278540248201D+03 E-N=-8.560703669755D+03  KE= 1.706903591548D+03
 Unable to Open any file for archive entry.
 1\1\GINC-CN02\FOpt\RB3LYP\6-31G(d)\C21H21N2S2(1+)\2100011873\06-Nov-20
 23\0\\# opt b3lyp/6-31g* scrf(smd, solvent=ethanol)\\A-2\\1,1\C,1.1865
 711906,1.1232729745,0.2405851525\C,-0.0667443366,0.5134621382,0.163592
 6958\C,-1.2598920134,1.2335417494,0.1934753716\C,-2.5870538238,0.78064
 43719,0.1296530046\C,2.3983214713,0.4311918991,0.1568895609\S,-3.84439
 45015,1.9798652126,-0.186397513\C,-5.095944243,0.7476771444,-0.1303472
 823\C,-4.5247496642,-0.5104283611,0.1175833228\N,-3.1303768706,-0.4572
 165414,0.2821353476\S,2.5163139937,-1.304606168,-0.1507498015\C,4.2764
 358799,-1.2254319823,-0.1138806889\C,4.7035700376,0.0910014139,0.12115
 40402\N,3.636089703,0.9834752301,0.2898047967\C,5.1817737588,-2.268241
 0104,-0.2920662461\C,6.5440088774,-1.9705709784,-0.2371897786\C,6.9777
 969665,-0.6572620399,-0.0126364949\C,6.0703268759,0.3861119097,0.16698
 70708\C,-6.4701355024,0.9061821194,-0.2982471247\C,-7.2755219884,-0.22
 95444935,-0.2195851842\C,-6.7107742014,-1.4895808097,0.0213353601\C,-5
 .3363693707,-1.6477332863,0.1914179664\C,3.8523528013,2.4194580421,0.5
 607210871\C,3.9420664944,3.251568376,-0.7155767808\C,-2.3787230878,-1.
 6591608246,0.6981619139\C,-1.9422062352,-2.5316364907,-0.4761877768\H,
 1.2253482047,2.2002348238,0.3651556942\H,-0.1001212407,-0.5641436339,0
 .0428322736\H,-1.1642423297,2.3173270638,0.2150863432\H,4.8372151464,-
 3.2822088011,-0.4708105344\H,7.2706429584,-2.7657099678,-0.3743034832\
 H,8.0414333911,-0.4405378642,0.0203066292\H,6.4232055063,1.3982196248,
 0.3293153195\H,-6.9000914019,1.8852698716,-0.4855189666\H,-8.349182944
 4,-0.1331668235,-0.3500646023\H,-7.3515824608,-2.364730746,0.073750220
 5\H,-4.9146767722,-2.6307344624,0.3667307763\H,3.0403071198,2.76047393
 98,1.2049766703\H,4.7697422777,2.496061654,1.1473018143\H,4.1124163167
 ,4.3005667369,-0.4494391245\H,4.7716646029,2.9185214164,-1.3478976199\
 H,3.0154637973,3.1897608518,-1.2957018457\H,-1.5321308924,-1.323491672
 6,1.2986977608\H,-3.034573187,-2.2176375433,1.36995681\H,-1.3029372181
 ,-1.9844594597,-1.1765741554\H,-1.380233378,-3.3906547084,-0.093410695
 \H,-2.8090367075,-2.9079648951,-1.0289983039\\Version=ES64L-G16RevC.02
 \State=1-A\HF=-1718.6522189\RMSD=6.014e-09\RMSF=2.626e-06\Dipole=0.468
 8146,0.0887339,0.5015406\Quadrupole=47.6496799,-9.3576073,-38.2920726,
 11.3900521,1.191943,0.781567\PG=C01 [X(C21H21N2S2)]\\@
 The archive entry for this job was punched.


 GARLIC THEN HAVE POWER TO SAVE FROM DEATH
 BEAR WITH IT THOUGH IT MAKETH UNSAVORY BREATH,
 AND SCORN NOT GARLIC LIKE SOME THAT THINK
 IT ONLY MAKETH MEN WINK AND DRINK AND STINK.
   --  SIR JOHN HARRINGTON,
       "THE ENGLISHMAN'S DOCTOR", 1609
 Job cpu time:       0 days  1 hours 46 minutes 46.3 seconds.
 Elapsed time:       0 days  0 hours  4 minutes 14.5 seconds.
 File lengths (MBytes):  RWF=    688 Int=      0 D2E=      0 Chk=     48 Scr=     32
 Normal termination of Gaussian 16 at Mon Nov  6 21:25:48 2023.
