 Entering Gaussian System, Link 0=g16
 Initial command:
 /nfs-share/home/2100011873/Gaussian16_AVX2/g16/l1.exe "/nfs-share/home/2100011873/GaussTmp/Gau-138211.inp" -scrdir="/nfs-share/home/2100011873/GaussTmp/"
 Entering Link 1 = /nfs-share/home/2100011873/Gaussian16_AVX2/g16/l1.exe PID=    138212.
  
 Copyright (c) 1988-2021, Gaussian, Inc.  All Rights Reserved.
  
 This is part of the Gaussian(R) 16 program.  It is based on
 the Gaussian(R) 09 system (copyright 2009, Gaussian, Inc.),
 the Gaussian(R) 03 system (copyright 2003, Gaussian, Inc.),
 the Gaussian(R) 98 system (copyright 1998, Gaussian, Inc.),
 the Gaussian(R) 94 system (copyright 1995, Gaussian, Inc.),
 the Gaussian 92(TM) system (copyright 1992, Gaussian, Inc.),
 the Gaussian 90(TM) system (copyright 1990, Gaussian, Inc.),
 the Gaussian 88(TM) system (copyright 1988, Gaussian, Inc.),
 the Gaussian 86(TM) system (copyright 1986, Carnegie Mellon
 University), and the Gaussian 82(TM) system (copyright 1983,
 Carnegie Mellon University). Gaussian is a federally registered
 trademark of Gaussian, Inc.
  
 This software contains proprietary and confidential information,
 including trade secrets, belonging to Gaussian, Inc.
  
 This software is provided under written license and may be
 used, copied, transmitted, or stored only in accord with that
 written license.
  
 The following legend is applicable only to US Government
 contracts under FAR:
  
                    RESTRICTED RIGHTS LEGEND
  
 Use, reproduction and disclosure by the US Government is
 subject to restrictions as set forth in subparagraphs (a)
 and (c) of the Commercial Computer Software - Restricted
 Rights clause in FAR 52.227-19.
  
 Gaussian, Inc.
 340 Quinnipiac St., Bldg. 40, Wallingford CT 06492
  
  
 ---------------------------------------------------------------
 Warning -- This program may not be used in any manner that
 competes with the business of Gaussian, Inc. or will provide
 assistance to any competitor of Gaussian, Inc.  The licensee
 of this program is prohibited from giving any competitor of
 Gaussian, Inc. access to this program.  By using this program,
 the user acknowledges that Gaussian, Inc. is engaged in the
 business of creating and licensing software in the field of
 computational chemistry and represents and warrants to the
 licensee that it is not a competitor of Gaussian, Inc. and that
 it will not use this program in any manner prohibited above.
 ---------------------------------------------------------------
  

 Cite this work as:
 Gaussian 16, Revision C.02,
 M. J. Frisch, G. W. Trucks, H. B. Schlegel, G. E. Scuseria, 
 M. A. Robb, J. R. Cheeseman, G. Scalmani, V. Barone, 
 G. A. Petersson, H. Nakatsuji, X. Li, M. Caricato, A. V. Marenich, 
 J. Bloino, B. G. Janesko, R. Gomperts, B. Mennucci, H. P. Hratchian, 
 J. V. Ortiz, A. F. Izmaylov, J. L. Sonnenberg, D. Williams-Young, 
 F. Ding, F. Lipparini, F. Egidi, J. Goings, B. Peng, A. Petrone, 
 T. Henderson, D. Ranasinghe, V. G. Zakrzewski, J. Gao, N. Rega, 
 G. Zheng, W. Liang, M. Hada, M. Ehara, K. Toyota, R. Fukuda, 
 J. Hasegawa, M. Ishida, T. Nakajima, Y. Honda, O. Kitao, H. Nakai, 
 T. Vreven, K. Throssell, J. A. Montgomery, Jr., J. E. Peralta, 
 F. Ogliaro, M. J. Bearpark, J. J. Heyd, E. N. Brothers, K. N. Kudin, 
 V. N. Staroverov, T. A. Keith, R. Kobayashi, J. Normand, 
 K. Raghavachari, A. P. Rendell, J. C. Burant, S. S. Iyengar, 
 J. Tomasi, M. Cossi, J. M. Millam, M. Klene, C. Adamo, R. Cammi, 
 J. W. Ochterski, R. L. Martin, K. Morokuma, O. Farkas, 
 J. B. Foresman, and D. J. Fox, Gaussian, Inc., Wallingford CT, 2019.
 
 ******************************************
 Gaussian 16:  ES64L-G16RevC.02  7-Dec-2021
                 6-Nov-2023 
 ******************************************
 %chk=A3.chk
 %nprocshared=36
 Will use up to   36 processors via shared memory.
 %mem=128GB
 ---------------------------------------------
 # opt b3lyp/6-31g* scrf(smd, solvent=ethanol)
 ---------------------------------------------
 1/18=20,19=15,26=3,38=1/1,3;
 2/9=110,12=2,17=6,18=5,40=1/2;
 3/5=1,6=6,7=1,11=2,25=1,30=1,70=32201,71=1,72=4,74=-5/1,2,3;
 4//1;
 5/5=2,38=5,53=4/2;
 6/7=2,8=2,9=2,10=2,28=1/1;
 7//1,2,3,16;
 1/18=20,19=15,26=3/3(2);
 2/9=110/2;
 99//99;
 2/9=110/2;
 3/5=1,6=6,7=1,11=2,25=1,30=1,70=32205,71=1,72=4,74=-5/1,2,3;
 4/5=5,16=3,69=1/1;
 5/5=2,38=5,53=4/2;
 7//1,2,3,16;
 1/18=20,19=15,26=3/3(-5);
 2/9=110/2;
 6/7=2,8=2,9=2,10=2,19=2,28=1/1;
 99/9=1/99;
 ---
 A-3
 ---
 Symbolic Z-matrix:
 Charge =  1 Multiplicity = 1
 C                    -2.42804   1.06652  -0.25318 
 C                    -1.1637    0.47934  -0.18892 
 C                     0.04181   1.17392  -0.25682 
 C                     1.28645   0.54133  -0.18105 
 C                    -3.63236   0.36093  -0.1721 
 S                    -3.73168  -1.38124   0.07285 
 C                    -5.49238  -1.31615   0.07935 
 C                    -5.93741   0.00252  -0.10246 
 N                    -4.87873   0.90962  -0.26159 
 C                    -6.38635  -2.37119   0.2407 
 C                    -7.75121  -2.08525   0.22361 
 C                    -8.20176  -0.77041   0.05133 
 C                    -7.30699   0.28573  -0.11153 
 C                    -5.10928   2.34993  -0.47364 
 C                    -5.16458   3.14278   0.83325 
 C                     2.49951   1.22923  -0.20369 
 C                     3.82211   0.76406  -0.12709 
 S                     5.094     1.94419   0.17203 
 C                     6.32618   0.69371   0.14037 
 C                     5.74078  -0.56156  -0.08827 
 N                     4.34645  -0.48864  -0.25638 
 C                     7.70209   0.835     0.30955 
 C                     8.49306  -0.31093   0.25083 
 C                     7.91391  -1.56717   0.0283 
 C                     6.53827  -1.70957  -0.14233 
 C                     3.57345  -1.67863  -0.65124 
 C                     3.11126  -2.52211   0.53872 
 H                    -2.48023   2.14497  -0.35954 
 H                    -1.10176  -0.60405  -0.07596 
 H                     0.0149    2.25675  -0.37062 
 H                     1.27116  -0.53799  -0.0619 
 H                    -6.03096  -3.38737   0.37793 
 H                    -8.46785  -2.89048   0.34879 
 H                    -9.26727  -0.56388   0.04669 
 H                    -7.67556   1.29813  -0.23269 
 H                    -4.32099   2.71824  -1.13381 
 H                    -6.04347   2.44228  -1.03182 
 H                    -4.22182   3.06671   1.38368 
 H                    -5.35038   4.19921   0.61452 
 H                    -5.96892   2.78077   1.48096 
 H                     2.42607   2.31429  -0.22968 
 H                     8.14445   1.81075   0.48253 
 H                     9.56705  -0.22672   0.38161 
 H                     8.54404  -2.45003  -0.00972 
 H                     6.10878  -2.69179  -0.30376 
 H                     2.73549  -1.33414  -1.25947 
 H                     4.21609  -2.26429  -1.31381 
 H                     3.96372  -2.88406   1.12125 
 H                     2.46478  -1.9518    1.21298 
 H                     2.55269  -3.3918    0.17731 
 

 GradGradGradGradGradGradGradGradGradGradGradGradGradGradGradGradGradGrad
 Berny optimization.
 Initialization pass.
                           ----------------------------
                           !    Initial Parameters    !
                           ! (Angstroms and Degrees)  !
 --------------------------                            --------------------------
 ! Name  Definition              Value          Derivative Info.                !
 --------------------------------------------------------------------------------
 ! R1    R(1,2)                  1.3955         estimate D2E/DX2                !
 ! R2    R(1,5)                  1.3982         estimate D2E/DX2                !
 ! R3    R(1,28)                 1.0849         estimate D2E/DX2                !
 ! R4    R(2,3)                  1.3929         estimate D2E/DX2                !
 ! R5    R(2,29)                 1.091          estimate D2E/DX2                !
 ! R6    R(3,4)                  1.3982         estimate D2E/DX2                !
 ! R7    R(3,30)                 1.0891         estimate D2E/DX2                !
 ! R8    R(4,16)                 1.3947         estimate D2E/DX2                !
 ! R9    R(4,31)                 1.086          estimate D2E/DX2                !
 ! R10   R(5,6)                  1.7621         estimate D2E/DX2                !
 ! R11   R(5,9)                  1.3647         estimate D2E/DX2                !
 ! R12   R(6,7)                  1.7619         estimate D2E/DX2                !
 ! R13   R(7,8)                  1.4036         estimate D2E/DX2                !
 ! R14   R(7,10)                 1.3922         estimate D2E/DX2                !
 ! R15   R(8,9)                  1.4032         estimate D2E/DX2                !
 ! R16   R(8,13)                 1.3986         estimate D2E/DX2                !
 ! R17   R(9,14)                 1.474          estimate D2E/DX2                !
 ! R18   R(10,11)                1.3946         estimate D2E/DX2                !
 ! R19   R(10,32)                1.0852         estimate D2E/DX2                !
 ! R20   R(11,12)                1.4005         estimate D2E/DX2                !
 ! R21   R(11,33)                1.0852         estimate D2E/DX2                !
 ! R22   R(12,13)                1.3938         estimate D2E/DX2                !
 ! R23   R(12,34)                1.0853         estimate D2E/DX2                !
 ! R24   R(13,35)                1.0842         estimate D2E/DX2                !
 ! R25   R(14,15)                1.5296         estimate D2E/DX2                !
 ! R26   R(14,36)                1.0922         estimate D2E/DX2                !
 ! R27   R(14,37)                1.0922         estimate D2E/DX2                !
 ! R28   R(15,38)                1.0943         estimate D2E/DX2                !
 ! R29   R(15,39)                1.0947         estimate D2E/DX2                !
 ! R30   R(15,40)                1.0943         estimate D2E/DX2                !
 ! R31   R(16,17)                1.4041         estimate D2E/DX2                !
 ! R32   R(16,41)                1.0879         estimate D2E/DX2                !
 ! R33   R(17,18)                1.7606         estimate D2E/DX2                !
 ! R34   R(17,21)                1.3641         estimate D2E/DX2                !
 ! R35   R(18,19)                1.7558         estimate D2E/DX2                !
 ! R36   R(19,20)                1.4038         estimate D2E/DX2                !
 ! R37   R(19,22)                1.3935         estimate D2E/DX2                !
 ! R38   R(20,21)                1.4063         estimate D2E/DX2                !
 ! R39   R(20,25)                1.3989         estimate D2E/DX2                !
 ! R40   R(21,26)                1.4729         estimate D2E/DX2                !
 ! R41   R(22,23)                1.3936         estimate D2E/DX2                !
 ! R42   R(22,42)                1.0852         estimate D2E/DX2                !
 ! R43   R(23,24)                1.4011         estimate D2E/DX2                !
 ! R44   R(23,43)                1.0852         estimate D2E/DX2                !
 ! R45   R(24,25)                1.3935         estimate D2E/DX2                !
 ! R46   R(24,44)                1.0853         estimate D2E/DX2                !
 ! R47   R(25,45)                1.0841         estimate D2E/DX2                !
 ! R48   R(26,27)                1.5301         estimate D2E/DX2                !
 ! R49   R(26,46)                1.0912         estimate D2E/DX2                !
 ! R50   R(26,47)                1.0931         estimate D2E/DX2                !
 ! R51   R(27,48)                1.0941         estimate D2E/DX2                !
 ! R52   R(27,49)                1.0944         estimate D2E/DX2                !
 ! R53   R(27,50)                1.095          estimate D2E/DX2                !
 ! A1    A(2,1,5)              124.4292         estimate D2E/DX2                !
 ! A2    A(2,1,28)             117.7972         estimate D2E/DX2                !
 ! A3    A(5,1,28)             117.768          estimate D2E/DX2                !
 ! A4    A(1,2,3)              124.8924         estimate D2E/DX2                !
 ! A5    A(1,2,29)             118.2955         estimate D2E/DX2                !
 ! A6    A(3,2,29)             116.812          estimate D2E/DX2                !
 ! A7    A(2,3,4)              122.8297         estimate D2E/DX2                !
 ! A8    A(2,3,30)             118.6505         estimate D2E/DX2                !
 ! A9    A(4,3,30)             118.5196         estimate D2E/DX2                !
 ! A10   A(3,4,16)             123.3806         estimate D2E/DX2                !
 ! A11   A(3,4,31)             116.2987         estimate D2E/DX2                !
 ! A12   A(16,4,31)            120.2798         estimate D2E/DX2                !
 ! A13   A(1,5,6)              123.7495         estimate D2E/DX2                !
 ! A14   A(1,5,9)              125.4473         estimate D2E/DX2                !
 ! A15   A(6,5,9)              110.8023         estimate D2E/DX2                !
 ! A16   A(5,6,7)               91.1639         estimate D2E/DX2                !
 ! A17   A(6,7,8)              110.5537         estimate D2E/DX2                !
 ! A18   A(6,7,10)             127.8865         estimate D2E/DX2                !
 ! A19   A(8,7,10)             121.5594         estimate D2E/DX2                !
 ! A20   A(7,8,9)              112.5081         estimate D2E/DX2                !
 ! A21   A(7,8,13)             120.1051         estimate D2E/DX2                !
 ! A22   A(9,8,13)             127.3868         estimate D2E/DX2                !
 ! A23   A(5,9,8)              114.9419         estimate D2E/DX2                !
 ! A24   A(5,9,14)             123.0349         estimate D2E/DX2                !
 ! A25   A(8,9,14)             122.0046         estimate D2E/DX2                !
 ! A26   A(7,10,11)            118.1396         estimate D2E/DX2                !
 ! A27   A(7,10,32)            120.9276         estimate D2E/DX2                !
 ! A28   A(11,10,32)           120.9327         estimate D2E/DX2                !
 ! A29   A(10,11,12)           120.5866         estimate D2E/DX2                !
 ! A30   A(10,11,33)           119.521          estimate D2E/DX2                !
 ! A31   A(12,11,33)           119.892          estimate D2E/DX2                !
 ! A32   A(11,12,13)           121.2815         estimate D2E/DX2                !
 ! A33   A(11,12,34)           119.6693         estimate D2E/DX2                !
 ! A34   A(13,12,34)           119.049          estimate D2E/DX2                !
 ! A35   A(8,13,12)            118.3248         estimate D2E/DX2                !
 ! A36   A(8,13,35)            121.5145         estimate D2E/DX2                !
 ! A37   A(12,13,35)           120.1586         estimate D2E/DX2                !
 ! A38   A(9,14,15)            112.907          estimate D2E/DX2                !
 ! A39   A(9,14,36)            107.6733         estimate D2E/DX2                !
 ! A40   A(9,14,37)            106.8546         estimate D2E/DX2                !
 ! A41   A(15,14,36)           111.5763         estimate D2E/DX2                !
 ! A42   A(15,14,37)           111.2177         estimate D2E/DX2                !
 ! A43   A(36,14,37)           106.256          estimate D2E/DX2                !
 ! A44   A(14,15,38)           111.2583         estimate D2E/DX2                !
 ! A45   A(14,15,39)           109.6108         estimate D2E/DX2                !
 ! A46   A(14,15,40)           111.1504         estimate D2E/DX2                !
 ! A47   A(38,15,39)           108.2882         estimate D2E/DX2                !
 ! A48   A(38,15,40)           108.2104         estimate D2E/DX2                !
 ! A49   A(39,15,40)           108.2251         estimate D2E/DX2                !
 ! A50   A(4,16,17)            130.9181         estimate D2E/DX2                !
 ! A51   A(4,16,41)            115.6982         estimate D2E/DX2                !
 ! A52   A(17,16,41)           113.2865         estimate D2E/DX2                !
 ! A53   A(16,17,18)           117.8833         estimate D2E/DX2                !
 ! A54   A(16,17,21)           131.3847         estimate D2E/DX2                !
 ! A55   A(18,17,21)           110.7294         estimate D2E/DX2                !
 ! A56   A(17,18,19)            91.52           estimate D2E/DX2                !
 ! A57   A(18,19,20)           110.3115         estimate D2E/DX2                !
 ! A58   A(18,19,22)           128.2086         estimate D2E/DX2                !
 ! A59   A(20,19,22)           121.4798         estimate D2E/DX2                !
 ! A60   A(19,20,21)           112.7408         estimate D2E/DX2                !
 ! A61   A(19,20,25)           120.1586         estimate D2E/DX2                !
 ! A62   A(21,20,25)           127.0968         estimate D2E/DX2                !
 ! A63   A(17,21,20)           114.6687         estimate D2E/DX2                !
 ! A64   A(17,21,26)           124.4436         estimate D2E/DX2                !
 ! A65   A(20,21,26)           120.6963         estimate D2E/DX2                !
 ! A66   A(19,22,23)           118.159          estimate D2E/DX2                !
 ! A67   A(19,22,42)           120.8645         estimate D2E/DX2                !
 ! A68   A(23,22,42)           120.9765         estimate D2E/DX2                !
 ! A69   A(22,23,24)           120.6199         estimate D2E/DX2                !
 ! A70   A(22,23,43)           119.5254         estimate D2E/DX2                !
 ! A71   A(24,23,43)           119.8545         estimate D2E/DX2                !
 ! A72   A(23,24,25)           121.2738         estimate D2E/DX2                !
 ! A73   A(23,24,44)           119.6647         estimate D2E/DX2                !
 ! A74   A(25,24,44)           119.0612         estimate D2E/DX2                !
 ! A75   A(20,25,24)           118.3077         estimate D2E/DX2                !
 ! A76   A(20,25,45)           121.5631         estimate D2E/DX2                !
 ! A77   A(24,25,45)           120.1271         estimate D2E/DX2                !
 ! A78   A(21,26,27)           113.292          estimate D2E/DX2                !
 ! A79   A(21,26,46)           107.2999         estimate D2E/DX2                !
 ! A80   A(21,26,47)           106.667          estimate D2E/DX2                !
 ! A81   A(27,26,46)           112.0583         estimate D2E/DX2                !
 ! A82   A(27,26,47)           110.709          estimate D2E/DX2                !
 ! A83   A(46,26,47)           106.4228         estimate D2E/DX2                !
 ! A84   A(26,27,48)           111.1675         estimate D2E/DX2                !
 ! A85   A(26,27,49)           111.7339         estimate D2E/DX2                !
 ! A86   A(26,27,50)           109.5876         estimate D2E/DX2                !
 ! A87   A(48,27,49)           107.7349         estimate D2E/DX2                !
 ! A88   A(48,27,50)           108.0855         estimate D2E/DX2                !
 ! A89   A(49,27,50)           108.4153         estimate D2E/DX2                !
 ! D1    D(5,1,2,3)           -179.4049         estimate D2E/DX2                !
 ! D2    D(5,1,2,29)             0.5224         estimate D2E/DX2                !
 ! D3    D(28,1,2,3)            -0.2867         estimate D2E/DX2                !
 ! D4    D(28,1,2,29)          179.6407         estimate D2E/DX2                !
 ! D5    D(2,1,5,6)              1.8989         estimate D2E/DX2                !
 ! D6    D(2,1,5,9)           -178.4873         estimate D2E/DX2                !
 ! D7    D(28,1,5,6)          -177.2196         estimate D2E/DX2                !
 ! D8    D(28,1,5,9)             2.3942         estimate D2E/DX2                !
 ! D9    D(1,2,3,4)            179.6653         estimate D2E/DX2                !
 ! D10   D(1,2,3,30)            -0.1329         estimate D2E/DX2                !
 ! D11   D(29,2,3,4)            -0.2631         estimate D2E/DX2                !
 ! D12   D(29,2,3,30)          179.9388         estimate D2E/DX2                !
 ! D13   D(2,3,4,16)          -177.8236         estimate D2E/DX2                !
 ! D14   D(2,3,4,31)            -0.1514         estimate D2E/DX2                !
 ! D15   D(30,3,4,16)            1.9748         estimate D2E/DX2                !
 ! D16   D(30,3,4,31)          179.647          estimate D2E/DX2                !
 ! D17   D(3,4,16,17)          179.3865         estimate D2E/DX2                !
 ! D18   D(3,4,16,41)            3.2641         estimate D2E/DX2                !
 ! D19   D(31,4,16,17)           1.8032         estimate D2E/DX2                !
 ! D20   D(31,4,16,41)        -174.3192         estimate D2E/DX2                !
 ! D21   D(1,5,6,7)            178.6109         estimate D2E/DX2                !
 ! D22   D(9,5,6,7)             -1.0525         estimate D2E/DX2                !
 ! D23   D(1,5,9,8)           -177.8143         estimate D2E/DX2                !
 ! D24   D(1,5,9,14)             0.643          estimate D2E/DX2                !
 ! D25   D(6,5,9,8)              1.8421         estimate D2E/DX2                !
 ! D26   D(6,5,9,14)          -179.7005         estimate D2E/DX2                !
 ! D27   D(5,6,7,8)              0.0435         estimate D2E/DX2                !
 ! D28   D(5,6,7,10)          -179.71           estimate D2E/DX2                !
 ! D29   D(6,7,8,9)              0.9595         estimate D2E/DX2                !
 ! D30   D(6,7,8,13)          -179.1255         estimate D2E/DX2                !
 ! D31   D(10,7,8,9)          -179.2687         estimate D2E/DX2                !
 ! D32   D(10,7,8,13)            0.6462         estimate D2E/DX2                !
 ! D33   D(6,7,10,11)          179.4429         estimate D2E/DX2                !
 ! D34   D(6,7,10,32)           -0.4362         estimate D2E/DX2                !
 ! D35   D(8,7,10,11)           -0.2863         estimate D2E/DX2                !
 ! D36   D(8,7,10,32)          179.8346         estimate D2E/DX2                !
 ! D37   D(7,8,9,5)             -1.847          estimate D2E/DX2                !
 ! D38   D(7,8,9,14)           179.678          estimate D2E/DX2                !
 ! D39   D(13,8,9,5)           178.2456         estimate D2E/DX2                !
 ! D40   D(13,8,9,14)           -0.2293         estimate D2E/DX2                !
 ! D41   D(7,8,13,12)           -0.5637         estimate D2E/DX2                !
 ! D42   D(7,8,13,35)          178.9095         estimate D2E/DX2                !
 ! D43   D(9,8,13,12)          179.3374         estimate D2E/DX2                !
 ! D44   D(9,8,13,35)           -1.1894         estimate D2E/DX2                !
 ! D45   D(5,9,14,15)          -88.0117         estimate D2E/DX2                !
 ! D46   D(5,9,14,36)           35.6054         estimate D2E/DX2                !
 ! D47   D(5,9,14,37)          149.4033         estimate D2E/DX2                !
 ! D48   D(8,9,14,15)           90.3388         estimate D2E/DX2                !
 ! D49   D(8,9,14,36)         -146.0441         estimate D2E/DX2                !
 ! D50   D(8,9,14,37)          -32.2462         estimate D2E/DX2                !
 ! D51   D(7,10,11,12)          -0.1351         estimate D2E/DX2                !
 ! D52   D(7,10,11,33)        -179.912          estimate D2E/DX2                !
 ! D53   D(32,10,11,12)        179.744          estimate D2E/DX2                !
 ! D54   D(32,10,11,33)         -0.0329         estimate D2E/DX2                !
 ! D55   D(10,11,12,13)          0.2031         estimate D2E/DX2                !
 ! D56   D(10,11,12,34)       -179.6132         estimate D2E/DX2                !
 ! D57   D(33,11,12,13)        179.9792         estimate D2E/DX2                !
 ! D58   D(33,11,12,34)          0.1629         estimate D2E/DX2                !
 ! D59   D(11,12,13,8)           0.1503         estimate D2E/DX2                !
 ! D60   D(11,12,13,35)       -179.3302         estimate D2E/DX2                !
 ! D61   D(34,12,13,8)         179.9677         estimate D2E/DX2                !
 ! D62   D(34,12,13,35)          0.4872         estimate D2E/DX2                !
 ! D63   D(9,14,15,38)          61.0018         estimate D2E/DX2                !
 ! D64   D(9,14,15,39)        -179.2587         estimate D2E/DX2                !
 ! D65   D(9,14,15,40)         -59.6658         estimate D2E/DX2                !
 ! D66   D(36,14,15,38)        -60.4323         estimate D2E/DX2                !
 ! D67   D(36,14,15,39)         59.3073         estimate D2E/DX2                !
 ! D68   D(36,14,15,40)        178.9001         estimate D2E/DX2                !
 ! D69   D(37,14,15,38)       -178.8852         estimate D2E/DX2                !
 ! D70   D(37,14,15,39)        -59.1457         estimate D2E/DX2                !
 ! D71   D(37,14,15,40)         60.4471         estimate D2E/DX2                !
 ! D72   D(4,16,17,18)        -166.6357         estimate D2E/DX2                !
 ! D73   D(4,16,17,21)          14.007          estimate D2E/DX2                !
 ! D74   D(41,16,17,18)          9.5604         estimate D2E/DX2                !
 ! D75   D(41,16,17,21)       -169.7969         estimate D2E/DX2                !
 ! D76   D(16,17,18,19)        179.6725         estimate D2E/DX2                !
 ! D77   D(21,17,18,19)         -0.843          estimate D2E/DX2                !
 ! D78   D(16,17,21,20)       -178.8994         estimate D2E/DX2                !
 ! D79   D(16,17,21,26)          6.1159         estimate D2E/DX2                !
 ! D80   D(18,17,21,20)          1.708          estimate D2E/DX2                !
 ! D81   D(18,17,21,26)       -173.2767         estimate D2E/DX2                !
 ! D82   D(17,18,19,20)         -0.1996         estimate D2E/DX2                !
 ! D83   D(17,18,19,22)        179.8992         estimate D2E/DX2                !
 ! D84   D(18,19,20,21)          1.1796         estimate D2E/DX2                !
 ! D85   D(18,19,20,25)       -179.4838         estimate D2E/DX2                !
 ! D86   D(22,19,20,21)       -178.9114         estimate D2E/DX2                !
 ! D87   D(22,19,20,25)          0.4251         estimate D2E/DX2                !
 ! D88   D(18,19,22,23)        179.6668         estimate D2E/DX2                !
 ! D89   D(18,19,22,42)         -0.3124         estimate D2E/DX2                !
 ! D90   D(20,19,22,23)         -0.2246         estimate D2E/DX2                !
 ! D91   D(20,19,22,42)        179.7962         estimate D2E/DX2                !
 ! D92   D(19,20,21,17)         -1.9069         estimate D2E/DX2                !
 ! D93   D(19,20,21,26)        173.2837         estimate D2E/DX2                !
 ! D94   D(25,20,21,17)        178.8123         estimate D2E/DX2                !
 ! D95   D(25,20,21,26)         -5.9971         estimate D2E/DX2                !
 ! D96   D(19,20,25,24)         -0.3501         estimate D2E/DX2                !
 ! D97   D(19,20,25,45)        179.1352         estimate D2E/DX2                !
 ! D98   D(21,20,25,24)        178.8828         estimate D2E/DX2                !
 ! D99   D(21,20,25,45)         -1.632          estimate D2E/DX2                !
 ! D100  D(17,21,26,27)        -97.0352         estimate D2E/DX2                !
 ! D101  D(17,21,26,46)         27.182          estimate D2E/DX2                !
 ! D102  D(17,21,26,47)        140.9074         estimate D2E/DX2                !
 ! D103  D(20,21,26,27)         88.2657         estimate D2E/DX2                !
 ! D104  D(20,21,26,46)       -147.517          estimate D2E/DX2                !
 ! D105  D(20,21,26,47)        -33.7917         estimate D2E/DX2                !
 ! D106  D(19,22,23,24)         -0.037          estimate D2E/DX2                !
 ! D107  D(19,22,23,43)       -179.8777         estimate D2E/DX2                !
 ! D108  D(42,22,23,24)        179.9422         estimate D2E/DX2                !
 ! D109  D(42,22,23,43)          0.1015         estimate D2E/DX2                !
 ! D110  D(22,23,24,25)          0.1017         estimate D2E/DX2                !
 ! D111  D(22,23,24,44)       -179.7031         estimate D2E/DX2                !
 ! D112  D(43,23,24,25)        179.9419         estimate D2E/DX2                !
 ! D113  D(43,23,24,44)          0.1371         estimate D2E/DX2                !
 ! D114  D(23,24,25,20)          0.0935         estimate D2E/DX2                !
 ! D115  D(23,24,25,45)       -179.3994         estimate D2E/DX2                !
 ! D116  D(44,24,25,20)        179.8995         estimate D2E/DX2                !
 ! D117  D(44,24,25,45)          0.4065         estimate D2E/DX2                !
 ! D118  D(21,26,27,48)        -60.0868         estimate D2E/DX2                !
 ! D119  D(21,26,27,49)         60.3115         estimate D2E/DX2                !
 ! D120  D(21,26,27,50)       -179.5019         estimate D2E/DX2                !
 ! D121  D(46,26,27,48)        178.3274         estimate D2E/DX2                !
 ! D122  D(46,26,27,49)        -61.2742         estimate D2E/DX2                !
 ! D123  D(46,26,27,50)         58.9123         estimate D2E/DX2                !
 ! D124  D(47,26,27,48)         59.6869         estimate D2E/DX2                !
 ! D125  D(47,26,27,49)       -179.9147         estimate D2E/DX2                !
 ! D126  D(47,26,27,50)        -59.7282         estimate D2E/DX2                !
 --------------------------------------------------------------------------------
 Trust Radius=3.00D-01 FncErr=1.00D-07 GrdErr=1.00D-06 EigMax=2.50D+02 EigMin=1.00D-04
 Number of steps in this run=    278 maximum allowed number of steps=    300.
 GradGradGradGradGradGradGradGradGradGradGradGradGradGradGradGradGradGrad

                          Input orientation:                          
 ---------------------------------------------------------------------
 Center     Atomic      Atomic             Coordinates (Angstroms)
 Number     Number       Type             X           Y           Z
 ---------------------------------------------------------------------
      1          6           0       -2.428041    1.066524   -0.253176
      2          6           0       -1.163701    0.479343   -0.188922
      3          6           0        0.041805    1.173916   -0.256816
      4          6           0        1.286450    0.541332   -0.181046
      5          6           0       -3.632364    0.360929   -0.172103
      6         16           0       -3.731682   -1.381240    0.072853
      7          6           0       -5.492381   -1.316150    0.079346
      8          6           0       -5.937414    0.002523   -0.102460
      9          7           0       -4.878726    0.909623   -0.261587
     10          6           0       -6.386349   -2.371189    0.240698
     11          6           0       -7.751214   -2.085245    0.223608
     12          6           0       -8.201765   -0.770406    0.051330
     13          6           0       -7.306986    0.285734   -0.111525
     14          6           0       -5.109277    2.349928   -0.473641
     15          6           0       -5.164583    3.142776    0.833251
     16          6           0        2.499506    1.229230   -0.203687
     17          6           0        3.822110    0.764058   -0.127091
     18         16           0        5.094002    1.944187    0.172030
     19          6           0        6.326179    0.693711    0.140374
     20          6           0        5.740783   -0.561555   -0.088266
     21          7           0        4.346445   -0.488644   -0.256376
     22          6           0        7.702092    0.835001    0.309547
     23          6           0        8.493059   -0.310930    0.250826
     24          6           0        7.913914   -1.567173    0.028296
     25          6           0        6.538273   -1.709565   -0.142327
     26          6           0        3.573454   -1.678630   -0.651238
     27          6           0        3.111260   -2.522112    0.538719
     28          1           0       -2.480232    2.144966   -0.359543
     29          1           0       -1.101764   -0.604050   -0.075964
     30          1           0        0.014895    2.256753   -0.370616
     31          1           0        1.271155   -0.537990   -0.061902
     32          1           0       -6.030956   -3.387372    0.377927
     33          1           0       -8.467850   -2.890478    0.348789
     34          1           0       -9.267265   -0.563876    0.046694
     35          1           0       -7.675558    1.298131   -0.232690
     36          1           0       -4.320988    2.718242   -1.133807
     37          1           0       -6.043470    2.442277   -1.031819
     38          1           0       -4.221825    3.066705    1.383681
     39          1           0       -5.350379    4.199206    0.614515
     40          1           0       -5.968923    2.780771    1.480961
     41          1           0        2.426074    2.314290   -0.229676
     42          1           0        8.144449    1.810753    0.482525
     43          1           0        9.567045   -0.226720    0.381606
     44          1           0        8.544040   -2.450028   -0.009720
     45          1           0        6.108776   -2.691785   -0.303762
     46          1           0        2.735494   -1.334144   -1.259472
     47          1           0        4.216087   -2.264286   -1.313807
     48          1           0        3.963720   -2.884064    1.121248
     49          1           0        2.464779   -1.951800    1.212975
     50          1           0        2.552692   -3.391803    0.177306
 ---------------------------------------------------------------------
                    Distance matrix (angstroms):
                    1          2          3          4          5
     1  C    0.000000
     2  C    1.395516   0.000000
     3  C    2.472182   1.392941   0.000000
     4  C    3.752129   2.450948   1.398229   0.000000
     5  C    1.398153   2.471559   3.763993   4.922129   0.000000
     6  S    2.792369   3.181952   4.569104   5.379814   1.762107
     7  C    3.895881   4.693957   6.077882   7.033533   2.517039
     8  C    3.670220   4.798246   6.094838   7.244357   2.333787
     9  N    2.455717   3.740566   4.927626   6.176692   1.364731
    10  C    5.265927   5.965413   7.357748   8.217815   3.901193
    11  C    6.204606   7.081145   8.460738   9.420298   4.806795
    12  C    6.066541   7.152198   8.475364   9.581278   4.712671
    13  C    4.943056   6.146822   7.403695   8.597517   3.675890
    14  C    2.980731   4.375811   5.288068   6.652966   2.495659
    15  C    3.602750   4.913835   5.671960   7.029377   3.331232
    16  C    4.930481   3.739202   2.458897   1.394712   6.193123
    17  C    6.258736   4.994316   3.804671   2.545995   7.465502
    18  S    7.585000   6.436995   5.128540   4.073097   8.875505
    19  C    8.770988   7.500179   6.315197   5.052267   9.969000
    20  C    8.331118   6.983230   5.959750   4.589777   9.418805
    21  N    6.950699   5.594931   4.614546   3.229566   8.024355
    22  C   10.148392   8.886915   7.688669   6.441070  11.354586
    23  C   11.019157   9.699017   8.595706   7.269668  12.151385
    24  C   10.675749   9.307981   8.340561   6.957938  11.707872
    25  C    9.386892   8.007115   7.108563   5.713990  10.379291
    26  C    6.611525   5.226014   4.556877   3.221754   7.504211
    27  C    6.647500   5.273849   4.869810   3.637675   7.368423
    28  H    1.084931   2.129945   2.704471   4.097731   2.131978
    29  H    2.140381   1.091025   2.121702   2.650756   2.710049
    30  H    2.719995   2.140394   1.089133   2.143702   4.115344
    31  H    4.036719   2.641898   2.116581   1.085986   4.986451
    32  H    5.763374   6.242033   7.621461   8.324157   4.483920
    33  H    7.245655   8.061974   9.449883  10.353956   5.850205
    34  H    7.037266   8.173834   9.474747  10.613871   5.714477
    35  H    5.252666   6.563277   7.718400   8.994054   4.150836
    36  H    2.662129   3.984211   4.710416   6.090160   2.637423
    37  H    3.945923   5.326888   6.264179   7.620048   3.299175
    38  H    3.146059   4.303446   4.944939   6.258352   3.176343
    39  H    4.371115   5.657841   6.243977   7.619741   4.278167
    40  H    4.299270   5.583479   6.459931   7.772888   3.748035
    41  H    5.011976   4.031771   2.643091   2.108195   6.365815
    42  H   10.624155   9.426831   8.161190   7.005991  11.883764
    43  H   12.081288  10.769073   9.648811   8.335151  13.224081
    44  H   11.524408  10.141675   9.245649   7.851764  12.497706
    45  H    9.327630   7.934618   7.194024   5.807145  10.209124
    46  H    5.782554   4.431539   3.814662   2.603870   6.678717
    47  H    7.507574   6.142881   5.510272   4.211581   8.354246
    48  H    7.638769   6.270526   5.809275   4.538401   8.360815
    49  H    5.932922   4.587117   4.219146   3.089897   6.666507
    50  H    6.698485   5.378798   5.228652   4.147449   7.242928
                    6          7          8          9         10
     6  S    0.000000
     7  C    1.761914   0.000000
     8  C    2.609749   1.403569   0.000000
     9  N    2.583721   2.333854   1.403201   0.000000
    10  C    2.838209   1.392236   2.440043   3.645400   0.000000
    11  C    4.083502   2.390532   2.784774   4.178018   1.394601
    12  C    4.511676   2.763943   2.397573   3.736710   2.427777
    13  C    3.949126   2.428015   1.398577   2.511614   2.833880
    14  C    4.014728   3.727290   2.516723   1.473974   4.942685
    15  C    4.806052   4.534076   3.366602   2.503469   5.678701
    16  C    6.761563   8.392218   8.526235   7.385378   9.597860
    17  C    7.855066   9.546184   9.789221   8.703093  10.685396
    18  S    9.431914  11.077450  11.204354  10.035619  12.264813
    19  C   10.269886  11.988395  12.285456  11.214191  13.077157
    20  C    9.509229  11.259728  11.691821  10.722331  12.265819
    21  N    8.133957   9.879270  10.296732   9.330539  10.907975
    22  C   11.648989  13.370660  13.671097  12.593996  14.448826
    23  C   12.272796  14.022568  14.438200  13.437148  15.021370
    24  C   11.647165  13.408742  13.940600  13.033426  14.324422
    25  C   10.277455  12.039126  12.592680  11.714189  12.947212
    26  C    7.346956   9.102445   9.673885   8.848177  10.023615
    27  C    6.953019   8.699885   9.416124   8.732535   9.503482
    28  H    3.766593   4.609229   4.075323   2.699711   6.001141
    29  H    2.746387   4.450699   4.873617   4.073218   5.581209
    30  H    5.241040   6.580136   6.370514   5.076827   7.922593
    31  H    5.075195   6.809618   7.228919   6.321115   7.879692
    32  H    3.066643   2.160827   3.425042   4.494528   1.085248
    33  H    4.978476   3.377058   3.869908   5.262617   2.148020
    34  H    5.595663   3.849251   3.380971   4.639559   3.406420
    35  H    4.777713   3.420248   2.171798   2.823835   3.917916
    36  H    4.313822   4.372667   3.324401   2.083973   5.661916
    37  H    4.602602   3.957797   2.612921   2.073382   4.990623
    38  H    4.662909   4.746053   3.813276   2.791313   5.963411
    39  H    5.835662   5.543079   4.297768   3.436767   6.662062
    40  H    4.930553   4.356189   3.197949   2.779604   5.315561
    41  H    7.187936   8.716508   8.678040   7.438697   9.991685
    42  H   12.304436  13.996543  14.209531  13.075505  15.122540
    43  H   13.352318  15.101806  15.513708  14.504664  16.097496
    44  H   12.322438  14.082426  14.687958  13.839123  14.932697
    45  H    9.934484  11.688712  12.345465  11.562747  12.511090
    46  H    6.603156   8.336107   8.851254   8.000413   9.302365
    47  H    8.116011   9.853638  10.473747   9.690020  10.716322
    48  H    7.910551   9.641668  10.385678   9.720758  10.400112
    49  H    6.326258   8.062603   8.726202   8.018051   8.914240
    50  H    6.598987   8.309099   9.147766   8.597724   8.997340
                   11         12         13         14         15
    11  C    0.000000
    12  C    1.400528   0.000000
    13  C    2.435404   1.393766   0.000000
    14  C    5.209294   4.424428   3.036766   0.000000
    15  C    5.864685   5.014865   3.693938   1.529586   0.000000
    16  C   10.781725  10.889480   9.852206   7.695610   7.967130
    17  C   11.924066  12.122705  11.139381   9.077706   9.345652
    18  S   13.462487  13.570593  12.514606  10.231736  10.349512
    19  C   14.349304  14.601806  13.641594  11.571073  11.769265
    20  C   13.581343  13.944811  13.075271  11.240509  11.554145
    21  N   12.211997  12.555144  11.680030   9.874987  10.238855
    22  C   15.727043  15.986766  15.025026  12.924379  13.082485
    23  C   16.340910  16.702337  15.815459  13.879069  14.099592
    24  C   15.674909  16.135380  15.333904  13.608789  13.924032
    25  C   14.299108  14.771196  13.988330  12.339152  12.706447
    26  C   11.365685  11.831072  11.069507   9.573434  10.089745
    27  C   10.875821  11.458209  10.809564   9.609312  10.033309
    28  H    6.783657   6.434606   5.178398   2.639490   3.102277
    29  H    6.819008   7.103090   6.268793   4.994426   5.601060
    30  H    8.917314   8.766712   7.586962   5.126054   5.390856
    31  H    9.158529   9.476447   8.617743   7.015662   7.467802
    32  H    2.163016   3.415785   3.919123   5.872927   6.603087
    33  H    1.085190   2.157310   3.412890   6.278396   6.895392
    34  H    2.155058   1.085342   2.142327   5.103907   5.584795
    35  H    3.414845   2.153232   1.084193   2.783906   3.293014
    36  H    6.056609   5.351228   3.984763   1.092188   2.182017
    37  H    4.999094   4.019052   2.663474   1.092157   2.177528
    38  H    6.351767   5.686695   4.414483   2.179676   1.094327
    39  H    6.738779   5.757137   4.435167   2.159176   1.094719
    40  H    5.332505   4.431736   3.248328   2.178322   1.094321
    41  H   11.096782  11.070017   9.942910   7.539384   7.709363
    42  H   16.368199  16.554366  15.537871  13.299106  13.380121
    43  H   17.418415  17.780194  16.889012  14.925314  15.118808
    44  H   16.301006  16.829939  16.085701  14.479912  14.829579
    45  H   13.883275  14.443316  13.743553  12.300099  12.744549
    46  H   10.617661  11.029943  10.236855   8.702319   9.318450
    47  H   12.066979  12.581666  11.862938  10.438355  11.038258
    48  H   11.776398  12.394003  11.772687  10.595170  10.942196
    49  H   10.264656  10.794456  10.111788   8.872196   9.181833
    50  H   10.386516  11.070047  10.527153   9.596717  10.133475
                   16         17         18         19         20
    16  C    0.000000
    17  C    1.404113   0.000000
    18  S    2.717303   1.760650   0.000000
    19  C    3.879251   2.519295   1.755834   0.000000
    20  C    3.704876   2.332394   2.600927   1.403801   0.000000
    21  N    2.522905   1.364150   2.580899   2.339812   1.406327
    22  C    5.242683   3.905118   2.837488   1.393456   2.440360
    23  C    6.204946   4.807929   4.079871   2.390998   2.784389
    24  C    6.098319   4.711862   4.505798   2.764970   2.397364
    25  C    4.995190   3.673770   3.941401   2.429123   1.398871
    26  C    3.131983   2.510634   4.014304   3.719159   2.502421
    27  C    3.872722   3.427466   4.900363   4.564636   3.339354
    28  H    5.065635   6.456040   7.595519   8.939180   8.659326
    29  H    4.043065   5.110662   6.703919   7.543562   6.842690
    30  H    2.693875   4.096624   5.117567   6.522003   6.388143
    31  H    2.156853   2.864777   4.563999   5.206848   4.469768
    32  H    9.716999  10.703846  12.338258  13.015777  12.115132
    33  H   11.728603  12.830636  14.398926  15.223441  14.404866
    34  H   11.905243  13.157711  14.579166  15.644354  15.008655
    35  H   10.175339  11.510550  12.792296  14.019741  13.545387
    36  H    7.042827   8.434593   9.536583  10.912581  10.634353
    37  H    8.668317  10.048115  11.213413  12.547499  12.197619
    38  H    7.146492   8.502324   9.461119  10.882890  10.704413
    39  H    8.432728   9.822666  10.694204  12.200628  12.090187
    40  H    8.772663  10.125082  11.171458  12.542828  12.278063
    41  H    1.087852   2.088698   2.723267   4.239579   4.390647
    42  H    5.716156   4.488855   3.069110   2.161239   3.425092
    43  H    7.239645   5.851896   4.976432   3.377662   3.869519
    44  H    7.078909   5.713208   5.589716   3.850264   3.380939
    45  H    5.330216   4.147638   4.769526   3.421418   2.172496
    46  H    2.782312   2.620205   4.284765   4.354857   3.316682
    47  H    4.047675   3.276336   4.548592   3.913678   2.593442
    48  H    4.562736   3.858393   5.048818   4.398159   3.164637
    49  H    3.482397   3.318736   4.814052   4.802042   3.789223
    50  H    4.637017   4.356060   5.910252   5.561654   4.271388
                   21         22         23         24         25
    21  N    0.000000
    22  C    3.651393   0.000000
    23  C    4.181297   1.393641   0.000000
    24  C    3.737793   2.427841   1.401098   0.000000
    25  C    2.511526   2.834340   2.435557   1.393476   0.000000
    26  C    1.472922   4.928194   5.185252   4.394745   3.008338
    27  C    2.508555   5.691965   5.825459   4.923203   3.587266
    28  H    7.317791  10.288023  11.261309  11.043943   9.810098
    29  H    5.452417   8.929018   9.604860   9.067576   7.719892
    30  H    5.129579   7.847101   8.880228   8.784990   7.637948
    31  H    3.081828   6.586352   7.232237   6.722619   5.396442
    32  H   10.793304  14.367662  14.846806  14.067507  12.691384
    33  H   13.051482  16.593606  17.156226  16.438249  15.060527
    34  H   13.617291  17.028947  17.763298  17.210458  15.848134
    35  H   12.154081  15.394175  16.255677  15.852751  14.528847
    36  H    9.283232  12.254971  13.239822  13.015686  11.769115
    37  H   10.823213  13.904067  14.850455  14.560498  13.278902
    38  H    9.420485  12.178426  13.204547  13.060860  11.871022
    39  H   10.805683  13.482503  14.564147  14.475367  13.297610
    40  H   10.959664  13.858387  14.839837  14.620124  13.387611
    41  H    3.397790   5.505944   6.628044   6.726715   5.754061
    42  H    4.500893   1.085216   2.162580   3.416117   3.919551
    43  H    5.265956   2.147206   1.085192   2.157425   3.412740
    44  H    4.639792   3.406204   2.155510   1.085328   2.142188
    45  H    2.821681   3.918293   3.414798   2.152565   1.084106
    46  H    2.077555   5.642172   6.039662   5.341225   3.981216
    47  H    2.070763   4.938936   4.955418   3.995138   2.659441
    48  H    2.789689   5.335328   5.281436   4.304971   3.099095
    49  H    2.800087   6.000991   6.321261   5.589676   4.299869
    50  H    3.440053   6.663308   6.692170   5.665173   4.337850
                   26         27         28         29         30
    26  C    0.000000
    27  C    1.530060   0.000000
    28  H    7.166037   7.338479   0.000000
    29  H    4.831493   4.669729   3.088313   0.000000
    30  H    5.313128   5.766448   2.497654   3.085116   0.000000
    31  H    2.636087   2.771908   4.621661   2.373880   3.079624
    32  H    9.809367   9.184478   6.615003   5.678894   8.304744
    33  H   12.143378  11.586525   7.855508   7.724467   9.948291
    34  H   12.907899  12.542115   7.318925   8.166521   9.710231
    35  H   11.643735  11.469297   5.265419   6.845263   7.751196
    36  H    9.049175   9.246457   2.077622   4.745530   4.426659
    37  H   10.469572  10.531896   3.638271   5.883386   6.097163
    38  H    9.350159   9.258670   2.630889   5.033864   4.656541
    39  H   10.760385  10.806535   3.661480   6.449710   5.790490
    40  H   10.746604  10.557372   3.995331   6.129459   6.285619
    41  H    4.175836   4.944764   4.910944   4.581045   2.415980
    42  H    5.861332   6.641526  10.663237   9.572651   8.186355
    43  H    6.252835   6.853515  12.300857  10.685281   9.898336
    44  H    5.070831   5.460868  11.948679   9.821077   9.748351
    45  H    2.752286   3.118279   9.857400   7.510154   7.850343
    46  H    1.091236   2.187683   6.333867   4.081455   4.591978
    47  H    1.093146   2.172319   8.074207   5.706854   6.243350
    48  H    2.178781   1.094092   8.307130   5.682509   6.651833
    49  H    2.186109   1.094447   6.611311   4.024677   5.120704
    50  H    2.159491   1.094979   7.501623   4.603342   6.216656
                   31         32         33         34         35
    31  H    0.000000
    32  H    7.850685   0.000000
    33  H   10.027516   2.487208   0.000000
    34  H   10.539011   4.307614   2.478589   0.000000
    35  H    9.134779   5.003150   4.302359   2.465493   0.000000
    36  H    6.559275   6.518271   7.131080   6.052399   3.752581
    37  H    7.957793   5.997695   6.018469   4.537951   2.147414
    38  H    6.727285   6.777876   7.388353   6.358075   4.203425
    39  H    8.169656   7.620717   7.749378   6.192848   3.813194
    40  H    8.112542   6.266300   6.299961   4.911501   2.836798
    41  H    3.081799  10.217607  12.087258  12.045514  10.152613
    42  H    7.283898  15.098793  17.265223  17.578299  15.844461
    43  H    8.313566  15.915005  18.230582  18.840304  17.320794
    44  H    7.520204  14.610250  17.021367  17.910984  16.648537
    45  H    5.300934  12.178737  14.592578  15.526540  14.350343
    46  H    2.052395   9.151364  11.424692  12.098165  10.787639
    47  H    3.635930  10.446300  12.807755  13.658080  12.460772
    48  H    3.762155  10.034909  12.455548  13.475790  12.441732
    49  H    2.246978   8.656540  11.006830  11.871285  10.746089
    50  H    3.137484   8.585993  11.033271  12.154243  11.259693
                   36         37         38         39         40
    36  H    0.000000
    37  H    1.747427   0.000000
    38  H    2.543424   3.089165   0.000000
    39  H    2.511878   2.505512   1.774207   0.000000
    40  H    3.091377   2.536572   1.773012   1.773495   0.000000
    41  H    6.819346   8.508407   6.882123   8.046042   8.580202
    42  H   12.602507  14.282475  12.462513  13.705200  14.181857
    43  H   14.277491  15.899984  14.212098  15.561896  15.862531
    44  H   13.909836  15.419948  13.976524  15.416123  15.498693
    45  H   11.778682  13.212333  11.946924  13.403030  13.379272
    46  H    8.138278   9.559466   8.646272   9.975527  10.010463
    47  H    9.886336  11.291136  10.338968  11.705231  11.704604
    48  H   10.252195  11.539041  10.123422  11.712469  11.440155
    49  H    8.565239   9.835513   8.362129   9.963419   9.674522
    50  H    9.289733  10.459086   9.437253  10.966909  10.602741
                   41         42         43         44         45
    41  H    0.000000
    42  H    5.784513   0.000000
    43  H    7.604200   2.487018   0.000000
    44  H    7.757359   4.307695   2.478462   0.000000
    45  H    6.215189   5.003505   4.301848   2.464836   0.000000
    46  H    3.803589   6.494746   7.112638   6.045352   3.759734
    47  H    5.034168   5.938416   5.971503   4.523972   2.187514
    48  H    5.586791   6.318842   6.245462   4.737806   2.582419
    49  H    4.503583   6.851935   7.355900   6.220983   4.015817
    50  H    5.721989   7.643788   7.698093   6.067798   3.656116
                   46         47         48         49         50
    46  H    0.000000
    47  H    1.749363   0.000000
    48  H    3.094934   2.525333   0.000000
    49  H    2.562768   3.090203   1.767584   0.000000
    50  H    2.516289   2.502318   1.771955   1.775936   0.000000
 Stoichiometry    C23H23N2S2(1+)
 Framework group  C1[X(C23H23N2S2)]
 Deg. of freedom   144
 Full point group                 C1      NOp   1
 Largest Abelian subgroup         C1      NOp   1
 Largest concise Abelian subgroup C1      NOp   1
                         Standard orientation:                         
 ---------------------------------------------------------------------
 Center     Atomic      Atomic             Coordinates (Angstroms)
 Number     Number       Type             X           Y           Z
 ---------------------------------------------------------------------
      1          6           0       -2.428041    1.066524   -0.253176
      2          6           0       -1.163701    0.479343   -0.188922
      3          6           0        0.041805    1.173916   -0.256816
      4          6           0        1.286450    0.541332   -0.181046
      5          6           0       -3.632364    0.360929   -0.172103
      6         16           0       -3.731682   -1.381240    0.072853
      7          6           0       -5.492381   -1.316150    0.079346
      8          6           0       -5.937414    0.002523   -0.102460
      9          7           0       -4.878726    0.909623   -0.261587
     10          6           0       -6.386349   -2.371189    0.240698
     11          6           0       -7.751214   -2.085245    0.223608
     12          6           0       -8.201765   -0.770406    0.051330
     13          6           0       -7.306986    0.285734   -0.111525
     14          6           0       -5.109277    2.349928   -0.473641
     15          6           0       -5.164583    3.142776    0.833251
     16          6           0        2.499506    1.229230   -0.203687
     17          6           0        3.822110    0.764058   -0.127091
     18         16           0        5.094002    1.944187    0.172030
     19          6           0        6.326179    0.693711    0.140374
     20          6           0        5.740783   -0.561555   -0.088266
     21          7           0        4.346445   -0.488644   -0.256376
     22          6           0        7.702092    0.835001    0.309547
     23          6           0        8.493059   -0.310930    0.250826
     24          6           0        7.913914   -1.567173    0.028296
     25          6           0        6.538273   -1.709565   -0.142327
     26          6           0        3.573454   -1.678630   -0.651238
     27          6           0        3.111260   -2.522112    0.538719
     28          1           0       -2.480232    2.144966   -0.359543
     29          1           0       -1.101764   -0.604050   -0.075964
     30          1           0        0.014895    2.256753   -0.370616
     31          1           0        1.271155   -0.537990   -0.061902
     32          1           0       -6.030956   -3.387372    0.377927
     33          1           0       -8.467850   -2.890478    0.348789
     34          1           0       -9.267265   -0.563876    0.046694
     35          1           0       -7.675558    1.298131   -0.232690
     36          1           0       -4.320988    2.718242   -1.133807
     37          1           0       -6.043470    2.442277   -1.031819
     38          1           0       -4.221825    3.066705    1.383681
     39          1           0       -5.350379    4.199206    0.614515
     40          1           0       -5.968923    2.780771    1.480961
     41          1           0        2.426074    2.314290   -0.229676
     42          1           0        8.144449    1.810753    0.482525
     43          1           0        9.567045   -0.226720    0.381606
     44          1           0        8.544040   -2.450028   -0.009720
     45          1           0        6.108776   -2.691785   -0.303762
     46          1           0        2.735494   -1.334144   -1.259472
     47          1           0        4.216087   -2.264286   -1.313807
     48          1           0        3.963720   -2.884064    1.121248
     49          1           0        2.464779   -1.951800    1.212975
     50          1           0        2.552692   -3.391803    0.177306
 ---------------------------------------------------------------------
 Rotational constants (GHZ):           0.5241396           0.0450045           0.0417493
 Standard basis: 6-31G(d) (6D, 7F)
 There are   459 symmetry adapted cartesian basis functions of A   symmetry.
 There are   459 symmetry adapted basis functions of A   symmetry.
   459 basis functions,   896 primitive gaussians,   459 cartesian basis functions
   103 alpha electrons      103 beta electrons
       nuclear repulsion energy      2425.7707626972 Hartrees.
 NAtoms=   50 NActive=   50 NUniq=   50 SFac= 1.00D+00 NAtFMM=   60 NAOKFM=F Big=F
 Integral buffers will be    131072 words long.
 Raffenetti 2 integral format.
 Two-electron integral symmetry is turned on.
 ------------------------------------------------------------------------------
 Polarizable Continuum Model (PCM)
 =================================
 Model                : PCM.
 Atomic radii         : SMD-Coulomb.
 Polarization charges : Total charges.
 Charge compensation  : None.
 Solution method      : On-the-fly selection.
 Cavity type          : VdW (van der Waals Surface) (Alpha=1.000).
 Cavity algorithm     : GePol (No added spheres)
                        Default sphere list used, NSphG=   50.
                        Lebedev-Laikov grids with approx.  5.0 points / Ang**2.
                        Smoothing algorithm: York/Karplus (Gamma=1.0000).
                        Polarization charges: spherical gaussians, with
                                              point-specific exponents (IZeta= 3).
                        Self-potential: point-specific (ISelfS= 7).
                        Self-field    : sphere-specific E.n sum rule (ISelfD= 2).
 1st derivatives      : Analytical E(r).r(x)/FMM algorithm (CHGder, D1EAlg=3).
                        Cavity 1st derivative terms included.
 Solvent              : Ethanol, Eps=  24.852000 Eps(inf)=   1.852593
 ------------------------------------------------------------------------------
 ------------------------------------------------------------------------------
 Atomic radii for non-electrostatic terms: SMD-CDS.
 ------------------------------------------------------------------------------
 Nuclear repulsion after PCM non-electrostatic terms =     2425.7643538585 Hartrees.
 One-electron integrals computed using PRISM.
 NBasis=   459 RedAO= T EigKep=  4.49D-04  NBF=   459
 NBsUse=   459 1.00D-06 EigRej= -1.00D+00 NBFU=   459
 ExpMin= 1.17D-01 ExpMax= 2.19D+04 ExpMxC= 3.30D+03 IAcc=3 IRadAn=         5 AccDes= 0.00D+00
 Harris functional with IExCor=  402 and IRadAn=       5 diagonalized for initial guess.
 HarFok:  IExCor=  402 AccDes= 0.00D+00 IRadAn=         5 IDoV= 1 UseB2=F ITyADJ=14
 ICtDFT=  3500011 ScaDFX=  1.000000  1.000000  1.000000  1.000000
 FoFCou: FMM=F IPFlag=           0 FMFlag=      100000 FMFlg1=           0
         NFxFlg=           0 DoJE=T BraDBF=F KetDBF=T FulRan=T
         wScrn=  0.000000 ICntrl=       500 IOpCl=  0 I1Cent=   200000004 NGrid=           0
         NMat0=    1 NMatS0=      1 NMatT0=    0 NMatD0=    1 NMtDS0=    0 NMtDT0=    0
 Petite list used in FoFCou.
 Requested convergence on RMS density matrix=1.00D-08 within 128 cycles.
 Requested convergence on MAX density matrix=1.00D-06.
 Requested convergence on             energy=1.00D-06.
 No special actions if energy rises.
 Inv3:  Mode=1 IEnd=    44444403.
 Iteration    1 A*A^-1 deviation from unit magnitude is 3.44D-15 for   2678.
 Iteration    1 A*A^-1 deviation from orthogonality  is 2.94D-15 for   2784   2121.
 Iteration    1 A^-1*A deviation from unit magnitude is 3.33D-15 for    892.
 Iteration    1 A^-1*A deviation from orthogonality  is 3.32D-14 for   3400   2563.
 Error on total polarization charges =  0.05167
 SCF Done:  E(RB3LYP) =  -1796.06156966     A.U. after   13 cycles
            NFock= 13  Conv=0.75D-08     -V/T= 2.0070
 SMD-CDS (non-electrostatic) energy       (kcal/mol) =      -4.02
 (included in total energy above)

 **********************************************************************

            Population analysis using the SCF Density.

 **********************************************************************

 Orbital symmetries:
       Occupied  (A) (A) (A) (A) (A) (A) (A) (A) (A) (A) (A) (A)
                 (A) (A) (A) (A) (A) (A) (A) (A) (A) (A) (A) (A)
                 (A) (A) (A) (A) (A) (A) (A) (A) (A) (A) (A) (A)
                 (A) (A) (A) (A) (A) (A) (A) (A) (A) (A) (A) (A)
                 (A) (A) (A) (A) (A) (A) (A) (A) (A) (A) (A) (A)
                 (A) (A) (A) (A) (A) (A) (A) (A) (A) (A) (A) (A)
                 (A) (A) (A) (A) (A) (A) (A) (A) (A) (A) (A) (A)
                 (A) (A) (A) (A) (A) (A) (A) (A) (A) (A) (A) (A)
                 (A) (A) (A) (A) (A) (A) (A)
       Virtual   (A) (A) (A) (A) (A) (A) (A) (A) (A) (A) (A) (A)
                 (A) (A) (A) (A) (A) (A) (A) (A) (A) (A) (A) (A)
                 (A) (A) (A) (A) (A) (A) (A) (A) (A) (A) (A) (A)
                 (A) (A) (A) (A) (A) (A) (A) (A) (A) (A) (A) (A)
                 (A) (A) (A) (A) (A) (A) (A) (A) (A) (A) (A) (A)
                 (A) (A) (A) (A) (A) (A) (A) (A) (A) (A) (A) (A)
                 (A) (A) (A) (A) (A) (A) (A) (A) (A) (A) (A) (A)
                 (A) (A) (A) (A) (A) (A) (A) (A) (A) (A) (A) (A)
                 (A) (A) (A) (A) (A) (A) (A) (A) (A) (A) (A) (A)
                 (A) (A) (A) (A) (A) (A) (A) (A) (A) (A) (A) (A)
                 (A) (A) (A) (A) (A) (A) (A) (A) (A) (A) (A) (A)
                 (A) (A) (A) (A) (A) (A) (A) (A) (A) (A) (A) (A)
                 (A) (A) (A) (A) (A) (A) (A) (A) (A) (A) (A) (A)
                 (A) (A) (A) (A) (A) (A) (A) (A) (A) (A) (A) (A)
                 (A) (A) (A) (A) (A) (A) (A) (A) (A) (A) (A) (A)
                 (A) (A) (A) (A) (A) (A) (A) (A) (A) (A) (A) (A)
                 (A) (A) (A) (A) (A) (A) (A) (A) (A) (A) (A) (A)
                 (A) (A) (A) (A) (A) (A) (A) (A) (A) (A) (A) (A)
                 (A) (A) (A) (A) (A) (A) (A) (A) (A) (A) (A) (A)
                 (A) (A) (A) (A) (A) (A) (A) (A) (A) (A) (A) (A)
                 (A) (A) (A) (A) (A) (A) (A) (A) (A) (A) (A) (A)
                 (A) (A) (A) (A) (A) (A) (A) (A) (A) (A) (A) (A)
                 (A) (A) (A) (A) (A) (A) (A) (A) (A) (A) (A) (A)
                 (A) (A) (A) (A) (A) (A) (A) (A) (A) (A) (A) (A)
                 (A) (A) (A) (A) (A) (A) (A) (A) (A) (A) (A) (A)
                 (A) (A) (A) (A) (A) (A) (A) (A) (A) (A) (A) (A)
                 (A) (A) (A) (A) (A) (A) (A) (A) (A) (A) (A) (A)
                 (A) (A) (A) (A) (A) (A) (A) (A) (A) (A) (A) (A)
                 (A) (A) (A) (A) (A) (A) (A) (A) (A) (A) (A) (A)
                 (A) (A) (A) (A) (A) (A) (A) (A)
 The electronic state is 1-A.
 Alpha  occ. eigenvalues --  -88.93171 -88.92993 -14.42144 -14.41792 -10.29765
 Alpha  occ. eigenvalues --  -10.29377 -10.25557 -10.25427 -10.24237 -10.24139
 Alpha  occ. eigenvalues --  -10.23675 -10.23510 -10.21783 -10.21780 -10.20956
 Alpha  occ. eigenvalues --  -10.20878 -10.20709 -10.20593 -10.20471 -10.20185
 Alpha  occ. eigenvalues --  -10.20084 -10.20076 -10.20008 -10.19897 -10.19288
 Alpha  occ. eigenvalues --  -10.18303 -10.18167  -7.99309  -7.99126  -5.95755
 Alpha  occ. eigenvalues --   -5.95580  -5.95389  -5.95213  -5.94907  -5.94710
 Alpha  occ. eigenvalues --   -1.01826  -1.01663  -0.87649  -0.87531  -0.85095
 Alpha  occ. eigenvalues --   -0.84684  -0.82674  -0.80248  -0.77864  -0.77282
 Alpha  occ. eigenvalues --   -0.76856  -0.75189  -0.74713  -0.73789  -0.70522
 Alpha  occ. eigenvalues --   -0.66413  -0.65895  -0.65712  -0.63362  -0.62467
 Alpha  occ. eigenvalues --   -0.61253  -0.60362  -0.58055  -0.56999  -0.56283
 Alpha  occ. eigenvalues --   -0.52742  -0.52617  -0.52273  -0.51237  -0.49543
 Alpha  occ. eigenvalues --   -0.48894  -0.47182  -0.47148  -0.46584  -0.46379
 Alpha  occ. eigenvalues --   -0.45868  -0.45682  -0.45013  -0.43900  -0.43752
 Alpha  occ. eigenvalues --   -0.43475  -0.42055  -0.40924  -0.40420  -0.40348
 Alpha  occ. eigenvalues --   -0.39770  -0.39328  -0.38850  -0.38080  -0.37595
 Alpha  occ. eigenvalues --   -0.37243  -0.37205  -0.36871  -0.36727  -0.36242
 Alpha  occ. eigenvalues --   -0.35751  -0.35552  -0.35342  -0.35163  -0.33825
 Alpha  occ. eigenvalues --   -0.31801  -0.31709  -0.29995  -0.27060  -0.25113
 Alpha  occ. eigenvalues --   -0.24999  -0.24024  -0.18468
 Alpha virt. eigenvalues --   -0.09619  -0.02725  -0.01761  -0.01686  -0.00738
 Alpha virt. eigenvalues --   -0.00355  -0.00272   0.00705   0.05232   0.06649
 Alpha virt. eigenvalues --    0.07373   0.08556   0.08958   0.09756   0.11008
 Alpha virt. eigenvalues --    0.11440   0.11946   0.12878   0.13327   0.13629
 Alpha virt. eigenvalues --    0.14031   0.14285   0.15025   0.15265   0.15727
 Alpha virt. eigenvalues --    0.15977   0.16149   0.16277   0.16687   0.17126
 Alpha virt. eigenvalues --    0.17410   0.18109   0.18303   0.19249   0.19475
 Alpha virt. eigenvalues --    0.19619   0.20000   0.20522   0.21090   0.21428
 Alpha virt. eigenvalues --    0.22545   0.22872   0.23076   0.24077   0.25375
 Alpha virt. eigenvalues --    0.26128   0.26479   0.27121   0.27621   0.29810
 Alpha virt. eigenvalues --    0.30388   0.31315   0.32431   0.33375   0.33798
 Alpha virt. eigenvalues --    0.34436   0.34502   0.35349   0.35846   0.36372
 Alpha virt. eigenvalues --    0.37644   0.38453   0.38787   0.39617   0.41265
 Alpha virt. eigenvalues --    0.43373   0.44542   0.47265   0.48403   0.48647
 Alpha virt. eigenvalues --    0.49113   0.49209   0.50538   0.50963   0.51340
 Alpha virt. eigenvalues --    0.51876   0.53174   0.53344   0.53454   0.53605
 Alpha virt. eigenvalues --    0.54094   0.54286   0.56060   0.56325   0.56701
 Alpha virt. eigenvalues --    0.56745   0.57559   0.57719   0.57902   0.58192
 Alpha virt. eigenvalues --    0.58313   0.58479   0.59104   0.59599   0.59949
 Alpha virt. eigenvalues --    0.60286   0.60357   0.60512   0.60644   0.61051
 Alpha virt. eigenvalues --    0.61221   0.61743   0.61932   0.63227   0.63871
 Alpha virt. eigenvalues --    0.64269   0.64878   0.65899   0.66190   0.67225
 Alpha virt. eigenvalues --    0.68724   0.70259   0.71181   0.71372   0.72060
 Alpha virt. eigenvalues --    0.73119   0.73750   0.75509   0.75635   0.77080
 Alpha virt. eigenvalues --    0.77861   0.79919   0.80979   0.81397   0.82015
 Alpha virt. eigenvalues --    0.82273   0.82865   0.83291   0.83958   0.84022
 Alpha virt. eigenvalues --    0.84646   0.85032   0.86361   0.86421   0.86855
 Alpha virt. eigenvalues --    0.87361   0.87835   0.88350   0.88522   0.89059
 Alpha virt. eigenvalues --    0.89082   0.89641   0.90065   0.90564   0.90977
 Alpha virt. eigenvalues --    0.91186   0.92001   0.92431   0.93310   0.93599
 Alpha virt. eigenvalues --    0.94789   0.95067   0.96173   0.96328   0.97154
 Alpha virt. eigenvalues --    0.97683   0.98423   0.98668   0.99394   0.99704
 Alpha virt. eigenvalues --    1.00139   1.00616   1.00884   1.01434   1.02506
 Alpha virt. eigenvalues --    1.03017   1.03687   1.04165   1.05274   1.06862
 Alpha virt. eigenvalues --    1.07755   1.09421   1.10377   1.11325   1.11691
 Alpha virt. eigenvalues --    1.13462   1.14860   1.15287   1.18119   1.19381
 Alpha virt. eigenvalues --    1.19995   1.21010   1.22672   1.23029   1.24027
 Alpha virt. eigenvalues --    1.24779   1.26840   1.27769   1.29717   1.31009
 Alpha virt. eigenvalues --    1.31162   1.32462   1.34792   1.37277   1.37726
 Alpha virt. eigenvalues --    1.38706   1.39670   1.39808   1.40642   1.41015
 Alpha virt. eigenvalues --    1.41973   1.42313   1.42383   1.43002   1.46358
 Alpha virt. eigenvalues --    1.46534   1.48272   1.48386   1.48447   1.50449
 Alpha virt. eigenvalues --    1.51769   1.54204   1.54498   1.55121   1.55607
 Alpha virt. eigenvalues --    1.55663   1.57198   1.58770   1.61391   1.65495
 Alpha virt. eigenvalues --    1.67491   1.68224   1.70484   1.71985   1.76383
 Alpha virt. eigenvalues --    1.77608   1.78483   1.78733   1.81230   1.82841
 Alpha virt. eigenvalues --    1.83277   1.83972   1.84916   1.85454   1.85916
 Alpha virt. eigenvalues --    1.87838   1.88201   1.89226   1.90188   1.90777
 Alpha virt. eigenvalues --    1.91113   1.91852   1.92669   1.93436   1.94075
 Alpha virt. eigenvalues --    1.95015   1.95392   1.95939   1.97780   1.99655
 Alpha virt. eigenvalues --    1.99997   2.00443   2.01687   2.03533   2.04092
 Alpha virt. eigenvalues --    2.06977   2.07639   2.08055   2.10836   2.11426
 Alpha virt. eigenvalues --    2.12571   2.13063   2.13312   2.13410   2.13848
 Alpha virt. eigenvalues --    2.15275   2.17241   2.18450   2.19432   2.19758
 Alpha virt. eigenvalues --    2.21600   2.22020   2.22329   2.24650   2.26244
 Alpha virt. eigenvalues --    2.26571   2.28093   2.28586   2.28761   2.29173
 Alpha virt. eigenvalues --    2.30433   2.31707   2.31897   2.33007   2.34141
 Alpha virt. eigenvalues --    2.35413   2.36425   2.38811   2.41826   2.45136
 Alpha virt. eigenvalues --    2.46150   2.46911   2.48214   2.48809   2.49851
 Alpha virt. eigenvalues --    2.50714   2.52772   2.55352   2.57297   2.57533
 Alpha virt. eigenvalues --    2.59674   2.60773   2.61125   2.62631   2.65658
 Alpha virt. eigenvalues --    2.66205   2.67755   2.68394   2.68977   2.71315
 Alpha virt. eigenvalues --    2.72067   2.72678   2.75189   2.75585   2.78844
 Alpha virt. eigenvalues --    2.85874   2.87362   2.89901   2.90973   2.93840
 Alpha virt. eigenvalues --    2.94911   2.99701   3.02618   3.10081   3.14532
 Alpha virt. eigenvalues --    3.20717   3.21656   3.39555   3.39781   3.93940
 Alpha virt. eigenvalues --    3.94208   4.06025   4.06550   4.07421   4.07545
 Alpha virt. eigenvalues --    4.09112   4.10233   4.11279   4.11598   4.12744
 Alpha virt. eigenvalues --    4.15170   4.18302   4.24404   4.26871   4.28133
 Alpha virt. eigenvalues --    4.32062   4.34640   4.35984   4.37344   4.41319
 Alpha virt. eigenvalues --    4.47439   4.47894   4.52371   4.57579   4.70920
 Alpha virt. eigenvalues --    4.71158
          Condensed to atoms (all electrons):
               1          2          3          4          5          6
     1  C    5.093770   0.482803  -0.023453   0.002664   0.449139  -0.074340
     2  C    0.482803   4.875527   0.501925  -0.001962  -0.001755   0.001065
     3  C   -0.023453   0.501925   4.933600   0.491240   0.003339   0.000582
     4  C    0.002664  -0.001962   0.491240   4.880357  -0.000295   0.000006
     5  C    0.449139  -0.001755   0.003339  -0.000295   4.931987   0.311049
     6  S   -0.074340   0.001065   0.000582   0.000006   0.311049  15.380218
     7  C    0.003610   0.000037  -0.000004   0.000000  -0.021299   0.262491
     8  C    0.004841  -0.000054   0.000001  -0.000000  -0.052267  -0.062976
     9  N   -0.036746   0.002668  -0.000086   0.000000   0.340204  -0.068445
    10  C   -0.000108   0.000003   0.000000  -0.000000   0.001422  -0.053978
    11  C    0.000003  -0.000000  -0.000000   0.000000  -0.000034   0.003544
    12  C    0.000001  -0.000000   0.000000   0.000000   0.000006   0.000401
    13  C   -0.000230   0.000001  -0.000000  -0.000000   0.005667   0.006907
    14  C    0.000186   0.000338  -0.000002   0.000000  -0.047649   0.004422
    15  C   -0.001325   0.000008   0.000000  -0.000000  -0.000514  -0.000136
    16  C   -0.000231   0.002037  -0.018155   0.486058   0.000002  -0.000000
    17  C    0.000002  -0.000274   0.003566  -0.019310  -0.000000   0.000000
    18  S   -0.000000   0.000004  -0.000086   0.003314   0.000000   0.000000
    19  C   -0.000000  -0.000000   0.000000  -0.000075   0.000000   0.000000
    20  C    0.000000  -0.000000   0.000003  -0.000112  -0.000000  -0.000000
    21  N   -0.000000   0.000003   0.000131  -0.009968  -0.000000   0.000000
    22  C    0.000000  -0.000000  -0.000000   0.000001   0.000000   0.000000
    23  C   -0.000000   0.000000   0.000000  -0.000000  -0.000000   0.000000
    24  C   -0.000000   0.000000  -0.000000  -0.000000  -0.000000   0.000000
    25  C   -0.000000  -0.000000  -0.000000   0.000000   0.000000  -0.000000
    26  C   -0.000000  -0.000007   0.000221   0.000492   0.000000  -0.000000
    27  C   -0.000000  -0.000009   0.000098  -0.003162  -0.000000  -0.000000
    28  H    0.370045  -0.040004  -0.005528   0.000325  -0.043215   0.003510
    29  H   -0.056116   0.364241  -0.042264  -0.006127  -0.007161   0.008957
    30  H   -0.005402  -0.053393   0.378610  -0.054247   0.000385   0.000027
    31  H    0.000435  -0.006040  -0.044504   0.365964   0.000007  -0.000001
    32  H   -0.000000   0.000000   0.000000  -0.000000   0.000013  -0.002047
    33  H   -0.000000   0.000000   0.000000  -0.000000  -0.000000  -0.000130
    34  H   -0.000000  -0.000000  -0.000000   0.000000   0.000002   0.000018
    35  H    0.000002   0.000000   0.000000   0.000000  -0.000119  -0.000275
    36  H    0.005362   0.000369  -0.000021  -0.000000  -0.007853  -0.000026
    37  H    0.000082  -0.000011   0.000000   0.000000   0.004863  -0.000230
    38  H    0.001405  -0.000089  -0.000007  -0.000000   0.002834  -0.000092
    39  H   -0.000031   0.000000   0.000000   0.000000  -0.000081   0.000003
    40  H    0.000025   0.000001  -0.000000  -0.000000  -0.000096   0.000008
    41  H    0.000004   0.000389  -0.007239  -0.040695  -0.000000  -0.000000
    42  H   -0.000000   0.000000   0.000000   0.000000   0.000000   0.000000
    43  H    0.000000   0.000000  -0.000000   0.000000   0.000000   0.000000
    44  H   -0.000000  -0.000000   0.000000  -0.000000   0.000000  -0.000000
    45  H   -0.000000   0.000000  -0.000000  -0.000000   0.000000   0.000000
    46  H    0.000000  -0.000034   0.000149   0.005227   0.000000  -0.000000
    47  H    0.000000  -0.000000  -0.000006   0.000141   0.000000  -0.000000
    48  H    0.000000   0.000000  -0.000001   0.000070  -0.000000   0.000000
    49  H   -0.000000  -0.000005   0.000027   0.000357  -0.000000   0.000000
    50  H    0.000000  -0.000001  -0.000004   0.000016  -0.000000  -0.000000
               7          8          9         10         11         12
     1  C    0.003610   0.004841  -0.036746  -0.000108   0.000003   0.000001
     2  C    0.000037  -0.000054   0.002668   0.000003  -0.000000  -0.000000
     3  C   -0.000004   0.000001  -0.000086   0.000000  -0.000000   0.000000
     4  C    0.000000  -0.000000   0.000000  -0.000000   0.000000   0.000000
     5  C   -0.021299  -0.052267   0.340204   0.001422  -0.000034   0.000006
     6  S    0.262491  -0.062976  -0.068445  -0.053978   0.003544   0.000401
     7  C    5.164364   0.487542  -0.056555   0.504186  -0.034236  -0.040725
     8  C    0.487542   4.584971   0.270991  -0.007819  -0.037538  -0.005294
     9  N   -0.056555   0.270991   6.981936   0.007259   0.000148   0.004742
    10  C    0.504186  -0.007819   0.007259   4.955889   0.528798  -0.026118
    11  C   -0.034236  -0.037538   0.000148   0.528798   4.880513   0.534052
    12  C   -0.040725  -0.005294   0.004742  -0.026118   0.534052   4.888975
    13  C   -0.071877   0.512720  -0.067233  -0.044559  -0.038361   0.519649
    14  C    0.006007  -0.036990   0.277885  -0.000060  -0.000006   0.000208
    15  C   -0.000342  -0.000750  -0.053270   0.000000   0.000001  -0.000004
    16  C   -0.000000   0.000000  -0.000000   0.000000  -0.000000   0.000000
    17  C    0.000000  -0.000000   0.000000   0.000000  -0.000000  -0.000000
    18  S   -0.000000   0.000000   0.000000  -0.000000   0.000000   0.000000
    19  C    0.000000  -0.000000   0.000000   0.000000   0.000000   0.000000
    20  C    0.000000  -0.000000  -0.000000  -0.000000   0.000000   0.000000
    21  N   -0.000000  -0.000000   0.000000  -0.000000   0.000000   0.000000
    22  C    0.000000   0.000000   0.000000   0.000000   0.000000   0.000000
    23  C    0.000000   0.000000   0.000000   0.000000   0.000000   0.000000
    24  C    0.000000   0.000000   0.000000   0.000000   0.000000   0.000000
    25  C   -0.000000  -0.000000  -0.000000   0.000000   0.000000   0.000000
    26  C    0.000000   0.000000  -0.000000   0.000000  -0.000000  -0.000000
    27  C   -0.000000  -0.000000   0.000000  -0.000000  -0.000000  -0.000000
    28  H    0.000026  -0.000140  -0.008519   0.000001  -0.000000   0.000000
    29  H    0.000049  -0.000005   0.000114   0.000002  -0.000000   0.000000
    30  H    0.000000  -0.000000   0.000000   0.000000  -0.000000   0.000000
    31  H    0.000000   0.000000  -0.000000   0.000000   0.000000  -0.000000
    32  H   -0.042387   0.003218  -0.000107   0.366742  -0.033900   0.004124
    33  H    0.004679   0.000560   0.000002  -0.040942   0.368526  -0.039110
    34  H    0.000784   0.003190  -0.000091   0.004599  -0.038101   0.365448
    35  H    0.005399  -0.035790  -0.007924   0.000281   0.003976  -0.037265
    36  H   -0.000233   0.003879  -0.033082   0.000002   0.000000  -0.000006
    37  H    0.000067  -0.007457  -0.033104  -0.000003  -0.000007   0.000207
    38  H    0.000002  -0.000117  -0.004293  -0.000000  -0.000000   0.000001
    39  H    0.000006  -0.000035   0.003797   0.000000  -0.000000  -0.000000
    40  H   -0.000100   0.002488  -0.003872  -0.000004   0.000003  -0.000051
    41  H    0.000000   0.000000   0.000000  -0.000000   0.000000   0.000000
    42  H    0.000000   0.000000   0.000000   0.000000   0.000000   0.000000
    43  H    0.000000   0.000000   0.000000   0.000000   0.000000   0.000000
    44  H    0.000000   0.000000   0.000000   0.000000   0.000000   0.000000
    45  H    0.000000  -0.000000   0.000000   0.000000   0.000000   0.000000
    46  H    0.000000   0.000000  -0.000000   0.000000  -0.000000  -0.000000
    47  H    0.000000   0.000000  -0.000000   0.000000  -0.000000  -0.000000
    48  H    0.000000   0.000000   0.000000  -0.000000   0.000000   0.000000
    49  H   -0.000000   0.000000   0.000000  -0.000000   0.000000   0.000000
    50  H   -0.000000   0.000000  -0.000000  -0.000000  -0.000000  -0.000000
              13         14         15         16         17         18
     1  C   -0.000230   0.000186  -0.001325  -0.000231   0.000002  -0.000000
     2  C    0.000001   0.000338   0.000008   0.002037  -0.000274   0.000004
     3  C   -0.000000  -0.000002   0.000000  -0.018155   0.003566  -0.000086
     4  C   -0.000000   0.000000  -0.000000   0.486058  -0.019310   0.003314
     5  C    0.005667  -0.047649  -0.000514   0.000002  -0.000000   0.000000
     6  S    0.006907   0.004422  -0.000136  -0.000000   0.000000   0.000000
     7  C   -0.071877   0.006007  -0.000342  -0.000000   0.000000  -0.000000
     8  C    0.512720  -0.036990  -0.000750   0.000000  -0.000000   0.000000
     9  N   -0.067233   0.277885  -0.053270  -0.000000   0.000000   0.000000
    10  C   -0.044559  -0.000060   0.000000   0.000000   0.000000  -0.000000
    11  C   -0.038361  -0.000006   0.000001  -0.000000  -0.000000   0.000000
    12  C    0.519649   0.000208  -0.000004   0.000000  -0.000000   0.000000
    13  C    5.014547  -0.001390  -0.000259  -0.000000   0.000000  -0.000000
    14  C   -0.001390   4.931099   0.368708   0.000000  -0.000000  -0.000000
    15  C   -0.000259   0.368708   5.100664  -0.000000   0.000000   0.000000
    16  C   -0.000000   0.000000  -0.000000   5.080801   0.469523  -0.052474
    17  C    0.000000  -0.000000   0.000000   0.469523   4.901646   0.298221
    18  S   -0.000000  -0.000000   0.000000  -0.052474   0.298221  15.382578
    19  C    0.000000  -0.000000   0.000000   0.002193  -0.023436   0.265397
    20  C    0.000000  -0.000000  -0.000000   0.003862  -0.050496  -0.063990
    21  N   -0.000000   0.000000   0.000000  -0.045975   0.350676  -0.071900
    22  C    0.000000  -0.000000   0.000000  -0.000075   0.001605  -0.053531
    23  C    0.000000   0.000000   0.000000   0.000002  -0.000060   0.003628
    24  C    0.000000   0.000000   0.000000   0.000002   0.000018   0.000384
    25  C    0.000000  -0.000000   0.000000  -0.000228   0.005151   0.007039
    26  C    0.000000   0.000000  -0.000000  -0.006423  -0.037125   0.004317
    27  C   -0.000000   0.000000   0.000000   0.000214   0.001207  -0.000251
    28  H   -0.000000   0.004035  -0.000490   0.000004   0.000000  -0.000000
[...]
    49  H    0.000016  -0.033777   0.377654   0.000000   0.000024   0.000001
    50  H   -0.000075  -0.027455   0.369599   0.000000   0.000007   0.000000
              31         32         33         34         35         36
     1  C    0.000473  -0.000000  -0.000000  -0.000000   0.000003   0.005476
     2  C   -0.006036   0.000000   0.000000  -0.000000   0.000000   0.000371
     3  C   -0.044520   0.000000   0.000000  -0.000000   0.000000  -0.000022
     4  C    0.366361  -0.000000  -0.000000   0.000000   0.000000  -0.000000
     5  C    0.000006   0.000012  -0.000000   0.000002  -0.000122  -0.007813
     6  S   -0.000001  -0.002050  -0.000130   0.000018  -0.000277  -0.000024
     7  C    0.000000  -0.042271   0.004657   0.000784   0.005437  -0.000227
     8  C    0.000000   0.003198   0.000559   0.003184  -0.035731   0.003879
     9  N   -0.000000  -0.000106   0.000002  -0.000092  -0.008037  -0.032847
    10  C    0.000000   0.366697  -0.040863   0.004574   0.000279   0.000002
    11  C    0.000000  -0.033817   0.368439  -0.038061   0.003940   0.000000
    12  C   -0.000000   0.004098  -0.038957   0.365322  -0.037141  -0.000006
    13  C    0.000000   0.000579   0.004627  -0.037664   0.357260   0.000155
    14  C    0.000000   0.000001  -0.000000   0.000001   0.002252   0.377216
    15  C   -0.000000  -0.000000   0.000000  -0.000001  -0.000094  -0.039200
    16  C   -0.054797  -0.000000   0.000000  -0.000000  -0.000000   0.000000
    17  C   -0.005217   0.000000   0.000000   0.000000   0.000000   0.000000
    18  S    0.000001   0.000000   0.000000   0.000000   0.000000   0.000000
    19  C    0.000001   0.000000   0.000000   0.000000   0.000000  -0.000000
    20  C   -0.000062  -0.000000   0.000000   0.000000   0.000000   0.000000
    21  N    0.000127  -0.000000   0.000000   0.000000  -0.000000  -0.000000
    22  C   -0.000000   0.000000   0.000000   0.000000   0.000000   0.000000
    23  C    0.000000   0.000000   0.000000   0.000000   0.000000   0.000000
    24  C   -0.000000   0.000000   0.000000   0.000000   0.000000   0.000000
    25  C    0.000000  -0.000000   0.000000   0.000000   0.000000  -0.000000
    26  C   -0.000256   0.000000  -0.000000  -0.000000   0.000000   0.000000
    27  C    0.000973  -0.000000   0.000000   0.000000  -0.000000  -0.000000
    28  H    0.000009   0.000000   0.000000  -0.000000  -0.000000   0.001642
    29  H    0.005004   0.000000   0.000000  -0.000000   0.000000   0.000001
    30  H    0.004766   0.000000  -0.000000  -0.000000  -0.000000  -0.000000
    31  H    0.534974  -0.000000  -0.000000   0.000000  -0.000000  -0.000000
    32  H   -0.000000   0.519043  -0.004748  -0.000143   0.000013  -0.000000
    33  H   -0.000000  -0.004748   0.538227  -0.004850  -0.000135  -0.000000
    34  H    0.000000  -0.000143  -0.004850   0.536645  -0.004772  -0.000000
    35  H   -0.000000   0.000013  -0.000135  -0.004772   0.521010   0.000004
    36  H   -0.000000  -0.000000  -0.000000  -0.000000   0.000004   0.516618
    37  H    0.000000   0.000000  -0.000000   0.000003   0.002551  -0.028003
    38  H    0.000000   0.000000  -0.000000   0.000000  -0.000024  -0.004943
    39  H    0.000000   0.000000  -0.000000   0.000000   0.000029  -0.000954
    40  H    0.000000  -0.000000  -0.000000  -0.000002   0.000922   0.004191
    41  H    0.004513  -0.000000  -0.000000   0.000000  -0.000000  -0.000000
    42  H    0.000000   0.000000   0.000000   0.000000   0.000000  -0.000000
    43  H   -0.000000   0.000000   0.000000   0.000000   0.000000   0.000000
    44  H    0.000000   0.000000   0.000000   0.000000   0.000000   0.000000
    45  H   -0.000000   0.000000   0.000000   0.000000   0.000000   0.000000
    46  H    0.000075   0.000000   0.000000  -0.000000   0.000000   0.000000
    47  H    0.000233  -0.000000  -0.000000   0.000000   0.000000   0.000000
    48  H   -0.000121   0.000000  -0.000000   0.000000  -0.000000   0.000000
    49  H    0.003690  -0.000000  -0.000000  -0.000000   0.000000   0.000000
    50  H    0.000144  -0.000000   0.000000  -0.000000   0.000000   0.000000
              37         38         39         40         41         42
     1  C    0.000081   0.001337  -0.000030   0.000025   0.000004  -0.000000
     2  C   -0.000011  -0.000086   0.000000   0.000001   0.000388   0.000000
     3  C   -0.000000  -0.000007   0.000000  -0.000000  -0.007143   0.000000
     4  C   -0.000000  -0.000000   0.000000  -0.000000  -0.040153   0.000000
     5  C    0.004820   0.002856  -0.000085  -0.000110  -0.000000   0.000000
     6  S   -0.000225  -0.000092   0.000004   0.000008  -0.000000   0.000000
     7  C    0.000056   0.000000   0.000006  -0.000098   0.000000   0.000000
     8  C   -0.007340  -0.000116  -0.000033   0.002544   0.000000   0.000000
     9  N   -0.033071  -0.004365   0.003889  -0.003988   0.000000   0.000000
    10  C   -0.000003  -0.000000   0.000000  -0.000004  -0.000000   0.000000
    11  C   -0.000007  -0.000000  -0.000000   0.000003   0.000000   0.000000
    12  C    0.000206   0.000001  -0.000000  -0.000054   0.000000   0.000000
    13  C    0.005007   0.000018  -0.000064   0.001381  -0.000000   0.000000
    14  C    0.377267  -0.032048  -0.027370  -0.031666   0.000000   0.000000
    15  C   -0.039049   0.378807   0.369911   0.378749  -0.000000   0.000000
    16  C   -0.000000   0.000000  -0.000000   0.000000   0.368660   0.000001
    17  C    0.000000   0.000000  -0.000000   0.000000  -0.040973   0.000014
    18  S    0.000000  -0.000000   0.000000  -0.000000  -0.001939  -0.002199
    19  C   -0.000000   0.000000  -0.000000   0.000000   0.000163  -0.041799
    20  C    0.000000   0.000000   0.000000  -0.000000  -0.000069   0.003229
    21  N   -0.000000  -0.000000   0.000000  -0.000000   0.003835  -0.000109
    22  C    0.000000   0.000000   0.000000   0.000000  -0.000001   0.366664
    23  C    0.000000   0.000000   0.000000   0.000000   0.000000  -0.033853
    24  C    0.000000  -0.000000   0.000000   0.000000  -0.000000   0.004095
    25  C    0.000000   0.000000   0.000000   0.000000   0.000002   0.000569
    26  C    0.000000  -0.000000   0.000000  -0.000000  -0.000123   0.000001
    27  C   -0.000000   0.000000  -0.000000   0.000000  -0.000013  -0.000000
    28  H    0.000102   0.001510   0.000009  -0.000044   0.000002   0.000000
    29  H    0.000000   0.000002   0.000000  -0.000000   0.000012   0.000000
    30  H    0.000000   0.000000   0.000000   0.000000   0.004617  -0.000000
    31  H    0.000000   0.000000   0.000000   0.000000   0.004513   0.000000
    32  H    0.000000   0.000000   0.000000  -0.000000  -0.000000   0.000000
    33  H   -0.000000  -0.000000  -0.000000  -0.000000  -0.000000   0.000000
    34  H    0.000003   0.000000   0.000000  -0.000002   0.000000   0.000000
    35  H    0.002551  -0.000024   0.000029   0.000922  -0.000000   0.000000
    36  H   -0.028003  -0.004943  -0.000954   0.004191  -0.000000  -0.000000
    37  H    0.514398   0.004164  -0.001005  -0.004761  -0.000000   0.000000
    38  H    0.004164   0.531959  -0.025531  -0.028711   0.000000  -0.000000
    39  H   -0.001005  -0.025531   0.530849  -0.025577  -0.000000   0.000000
    40  H   -0.004761  -0.028711  -0.025577   0.532251   0.000000   0.000000
    41  H   -0.000000   0.000000  -0.000000   0.000000   0.525049   0.000000
    42  H    0.000000  -0.000000   0.000000   0.000000   0.000000   0.517627
    43  H    0.000000   0.000000   0.000000   0.000000  -0.000000  -0.004720
    44  H    0.000000   0.000000   0.000000   0.000000   0.000000  -0.000142
    45  H    0.000000  -0.000000   0.000000   0.000000   0.000000   0.000013
    46  H    0.000000  -0.000000   0.000000  -0.000000  -0.000007  -0.000000
    47  H    0.000000  -0.000000   0.000000  -0.000000   0.000004   0.000000
    48  H    0.000000   0.000000  -0.000000  -0.000000   0.000000  -0.000000
    49  H    0.000000  -0.000000   0.000000  -0.000000  -0.000001   0.000000
    50  H    0.000000  -0.000000   0.000000  -0.000000   0.000000   0.000000
              43         44         45         46         47         48
     1  C    0.000000  -0.000000  -0.000000   0.000000   0.000000   0.000000
     2  C    0.000000  -0.000000   0.000000  -0.000034  -0.000000   0.000000
     3  C   -0.000000   0.000000  -0.000000   0.000153  -0.000006  -0.000001
     4  C    0.000000  -0.000000  -0.000000   0.005038   0.000143   0.000071
     5  C    0.000000   0.000000   0.000000   0.000000   0.000000  -0.000000
     6  S    0.000000  -0.000000   0.000000  -0.000000  -0.000000   0.000000
     7  C    0.000000   0.000000   0.000000   0.000000   0.000000   0.000000
     8  C    0.000000   0.000000  -0.000000   0.000000   0.000000   0.000000
     9  N    0.000000   0.000000   0.000000  -0.000000  -0.000000   0.000000
    10  C    0.000000   0.000000   0.000000   0.000000   0.000000  -0.000000
    11  C    0.000000   0.000000   0.000000  -0.000000  -0.000000   0.000000
    12  C    0.000000   0.000000   0.000000  -0.000000  -0.000000   0.000000
    13  C    0.000000   0.000000   0.000000   0.000000   0.000000  -0.000000
    14  C    0.000000   0.000000  -0.000000  -0.000000  -0.000000   0.000000
    15  C    0.000000   0.000000   0.000000  -0.000000  -0.000000  -0.000000
    16  C   -0.000000  -0.000000   0.000005   0.002360   0.000283  -0.000008
    17  C    0.000000   0.000002  -0.000115  -0.003120   0.003588  -0.000106
    18  S   -0.000131   0.000018  -0.000279   0.000102  -0.000215   0.000011
    19  C    0.004667   0.000782   0.005443  -0.000189   0.000123  -0.000080
    20  C    0.000565   0.003184  -0.035293   0.003803  -0.006248   0.002089
    21  N    0.000002  -0.000091  -0.008258  -0.036521  -0.034871  -0.003841
    22  C   -0.040740   0.004555   0.000272   0.000003  -0.000012  -0.000004
    23  C    0.368403  -0.037891   0.003912   0.000000  -0.000009   0.000003
    24  C   -0.038828   0.365402  -0.036864  -0.000007   0.000176  -0.000051
    25  C    0.004616  -0.037562   0.356903   0.000187   0.005187   0.001557
    26  C   -0.000000   0.000002   0.002672   0.376435   0.376040  -0.031557
    27  C    0.000000  -0.000001  -0.000318  -0.040245  -0.040355   0.376807
    28  H   -0.000000  -0.000000   0.000000   0.000000   0.000000   0.000000
    29  H    0.000000   0.000000   0.000000   0.000005   0.000000  -0.000000
    30  H   -0.000000   0.000000  -0.000000   0.000002   0.000000   0.000000
    31  H   -0.000000   0.000000  -0.000000   0.000075   0.000233  -0.000121
    32  H    0.000000   0.000000   0.000000   0.000000  -0.000000   0.000000
    33  H    0.000000   0.000000   0.000000   0.000000  -0.000000  -0.000000
    34  H    0.000000   0.000000   0.000000  -0.000000   0.000000   0.000000
    35  H    0.000000   0.000000   0.000000   0.000000   0.000000  -0.000000
    36  H    0.000000   0.000000   0.000000   0.000000   0.000000   0.000000
    37  H    0.000000   0.000000   0.000000   0.000000   0.000000   0.000000
    38  H    0.000000   0.000000  -0.000000  -0.000000  -0.000000   0.000000
    39  H    0.000000   0.000000   0.000000   0.000000   0.000000  -0.000000
    40  H    0.000000   0.000000   0.000000  -0.000000  -0.000000  -0.000000
    41  H   -0.000000   0.000000   0.000000  -0.000007   0.000004   0.000000
    42  H   -0.004720  -0.000142   0.000013  -0.000000   0.000000  -0.000000
    43  H    0.536690  -0.004835  -0.000133  -0.000000  -0.000000  -0.000000
    44  H   -0.004835   0.535080  -0.004748  -0.000000   0.000003  -0.000003
    45  H   -0.000133  -0.004748   0.518446   0.000033   0.001969   0.001662
    46  H   -0.000000  -0.000000   0.000033   0.515076  -0.025685   0.004162
    47  H   -0.000000   0.000003   0.001969  -0.025685   0.515239  -0.004926
    48  H   -0.000000  -0.000003   0.001662   0.004162  -0.004926   0.530092
    49  H   -0.000000   0.000000  -0.000037  -0.004593   0.004172  -0.027791
    50  H   -0.000000   0.000000   0.000061  -0.001125  -0.000710  -0.025422
              49         50
     1  C   -0.000000   0.000000
     2  C   -0.000005  -0.000001
     3  C    0.000027  -0.000004
     4  C    0.000373   0.000019
     5  C   -0.000000  -0.000000
     6  S    0.000000  -0.000000
     7  C   -0.000000  -0.000000
     8  C    0.000000   0.000000
     9  N    0.000000  -0.000000
    10  C   -0.000000  -0.000000
    11  C    0.000000  -0.000000
    12  C    0.000000  -0.000000
    13  C   -0.000000   0.000000
    14  C   -0.000000  -0.000000
    15  C   -0.000000  -0.000000
    16  C   -0.000242  -0.000008
    17  C    0.001822  -0.000117
    18  S   -0.000069   0.000006
    19  C    0.000001   0.000005
    20  C   -0.000023   0.000008
    21  N   -0.003011   0.003779
    22  C   -0.000000  -0.000000
    23  C   -0.000000   0.000000
    24  C    0.000000  -0.000001
    25  C    0.000016  -0.000075
    26  C   -0.033777  -0.027455
    27  C    0.377654   0.369599
    28  H    0.000000   0.000000
    29  H    0.000024   0.000007
    30  H    0.000001   0.000000
    31  H    0.003690   0.000144
    32  H   -0.000000  -0.000000
    33  H   -0.000000   0.000000
    34  H   -0.000000  -0.000000
    35  H    0.000000   0.000000
    36  H    0.000000   0.000000
    37  H    0.000000   0.000000
    38  H   -0.000000  -0.000000
    39  H    0.000000   0.000000
    40  H   -0.000000  -0.000000
    41  H   -0.000001   0.000000
    42  H    0.000000   0.000000
    43  H   -0.000000  -0.000000
    44  H    0.000000   0.000000
    45  H   -0.000037   0.000061
    46  H   -0.004593  -0.001125
    47  H    0.004172  -0.000710
    48  H   -0.027791  -0.025422
    49  H    0.526895  -0.025178
    50  H   -0.025178   0.528894
 Mulliken charges:
               1
     1  C   -0.217298
     2  C   -0.128647
     3  C   -0.169847
     4  C   -0.102219
     5  C    0.131133
     6  S    0.277426
     7  C   -0.171360
     8  C    0.373121
     9  N   -0.516351
    10  C   -0.195600
    11  C   -0.137995
    12  C   -0.169714
    13  C   -0.167454
    14  C   -0.172235
    15  C   -0.461635
    16  C   -0.232421
    17  C    0.143706
    18  S    0.278710
    19  C   -0.169565
    20  C    0.369047
    21  N   -0.509163
    22  C   -0.193978
    23  C   -0.135900
    24  C   -0.169692
    25  C   -0.164761
    26  C   -0.182152
    27  C   -0.464644
    28  H    0.195283
    29  H    0.182136
    30  H    0.162421
    31  H    0.189661
    32  H    0.189493
    33  H    0.173172
    34  H    0.175050
    35  H    0.192633
    36  H    0.204485
    37  H    0.204820
    38  H    0.175268
    39  H    0.175952
    40  H    0.174941
    41  H    0.183175
    42  H    0.190608
    43  H    0.174445
    44  H    0.176245
    45  H    0.194656
    46  H    0.204090
    47  H    0.205877
    48  H    0.177452
    49  H    0.180053
    50  H    0.177573
 Sum of Mulliken charges =   1.00000
 Mulliken charges with hydrogens summed into heavy atoms:
               1
     1  C   -0.022015
     2  C    0.053489
     3  C   -0.007426
     4  C    0.087443
     5  C    0.131133
     6  S    0.277426
     7  C   -0.171360
     8  C    0.373121
     9  N   -0.516351
    10  C   -0.006107
    11  C    0.035177
    12  C    0.005336
    13  C    0.025179
    14  C    0.237070
    15  C    0.064526
    16  C   -0.049247
    17  C    0.143706
    18  S    0.278710
    19  C   -0.169565
    20  C    0.369047
    21  N   -0.509163
    22  C   -0.003370
    23  C    0.038545
    24  C    0.006554
    25  C    0.029895
    26  C    0.227815
    27  C    0.070435
 Electronic spatial extent (au):  <R**2>=          23399.9753
 Charge=              1.0000 electrons
 Dipole moment (field-independent basis, Debye):
    X=             -1.1039    Y=             -0.0946    Z=             -1.1007  Tot=              1.5618
 Quadrupole moment (field-independent basis, Debye-Ang):
   XX=            -11.0488   YY=           -135.4397   ZZ=           -176.6670
   XY=            -21.2999   XZ=              1.2539   YZ=             -0.8754
 Traceless Quadrupole moment (field-independent basis, Debye-Ang):
   XX=             96.6697   YY=            -27.7212   ZZ=            -68.9485
   XY=            -21.2999   XZ=              1.2539   YZ=             -0.8754
 Octapole moment (field-independent basis, Debye-Ang**2):
  XXX=            -42.3052  YYY=             -6.3611  ZZZ=             -2.4690  XYY=            -34.5872
  XXY=            -15.8635  XXZ=              5.5372  XZZ=             -1.5547  YZZ=              2.0682
  YYZ=             -4.1948  XYZ=             31.3708
 Hexadecapole moment (field-independent basis, Debye-Ang**3):
 XXXX=         -19519.8563 YYYY=          -2392.6809 ZZZZ=           -326.2943 XXXY=           -330.3172
 XXXZ=            222.6945 YYYX=           -105.3717 YYYZ=            -15.2195 ZZZX=             -3.6400
 ZZZY=              3.6818 XXYY=          -4258.2402 XXZZ=          -5211.3751 YYZZ=           -512.2841
 XXYZ=            -25.9137 YYXZ=            -18.4086 ZZXY=            -47.9180
 N-N= 2.427099750020D+03 E-N=-9.037094562260D+03  KE= 1.783542481818D+03
 Unable to Open any file for archive entry.
 1\1\GINC-CN02\FOpt\RB3LYP\6-31G(d)\C23H23N2S2(1+)\2100011873\06-Nov-20
 23\0\\# opt b3lyp/6-31g* scrf(smd, solvent=ethanol)\\A-3\\1,1\C,-2.417
 9760648,1.0845617006,-0.2420632074\C,-1.1511588718,0.5012095775,-0.177
 2625364\C,0.0482020095,1.2087632941,-0.2393838779\C,1.2915561769,0.572
 5307776,-0.1694466948\C,-3.6167252194,0.3723733399,-0.1628879521\S,-3.
 7024758929,-1.3742037135,0.0956996981\C,-5.4645295976,-1.3216834673,0.
 0927928268\C,-5.9163812666,-0.0062982329,-0.1005840179\N,-4.8671592479
 ,0.9073467222,-0.2629378324\C,-6.350940797,-2.3827891043,0.2575853214\
 C,-7.7186634159,-2.1060206126,0.2328600971\C,-8.176551373,-0.794491852
 3,0.0505015537\C,-7.2883954258,0.2675923693,-0.1160750289\C,-5.1105550
 89,2.3462094661,-0.4877221695\C,-5.1918356746,3.139562183,0.8136205472
 \C,2.5059268741,1.2594495351,-0.1883863087\C,3.8209825209,0.7757840989
 ,-0.121813714\S,5.1092343177,1.9458966111,0.1846723556\C,6.3291314448,
 0.6817634428,0.1441949728\C,5.726813494,-0.5638325074,-0.0949204833\N,
 4.3354215729,-0.4774435067,-0.2630723952\C,7.7061691344,0.8069766864,0
 .3157990736\C,8.4833995435,-0.3492578777,0.2496501587\C,7.8879614048,-
 1.5965126353,0.0166915205\C,6.5104446592,-1.7215083022,-0.1568914148\C
 ,3.5523198329,-1.6654802598,-0.658291652\C,3.0874244879,-2.4993768872,
 0.5329395771\H,-2.4764737693,2.1627477503,-0.3489325231\H,-1.072902667
 8,-0.5821147244,-0.0718490936\H,0.0148268757,2.2925879758,-0.345082854
 1\H,1.2728164594,-0.5067991834,-0.0597464066\H,-5.988056361,-3.3956999
 395,0.4031414402\H,-8.4303463505,-2.9161445192,0.3604736361\H,-9.24383
 44166,-0.5938463023,0.0407214142\H,-7.6597023834,1.2778599871,-0.24551
 54405\H,-4.3154871658,2.7199825881,-1.1349235417\H,-6.0388554264,2.425
 5525548,-1.0566019868\H,-4.2553514007,3.0745592513,1.3772764293\H,-5.3
 815449655,4.1933337309,0.581452538\H,-6.0062967626,2.7758411237,1.4487
 761075\H,2.438938279,2.3457855541,-0.2041554672\H,8.1595573573,1.77666
 92488,0.4970053048\H,9.5586597935,-0.2788263463,0.3835075625\H,8.50666
 7226,-2.4879561652,-0.0264761688\H,6.0645386286,-2.6947849549,-0.32670
 81305\H,2.7173283651,-1.3181082582,-1.2679367712\H,4.1938061352,-2.256
 1958775,-1.3161066857\H,3.9411830913,-2.8821149939,1.1015697903\H,2.45
 58627294,-1.9195381385,1.2135321672\H,2.5078721918,-3.3542372065,0.167
 3762624\\Version=ES64L-G16RevC.02\State=1-A\HF=-1796.061767\RMSD=6.904
 e-09\RMSF=4.776e-06\Dipole=-0.4344655,-0.0377097,-0.4328537\Quadrupole
 =71.8678094,-20.607448,-51.2603614,-15.8475679,0.9136064,-0.6861821\PG
 =C01 [X(C23H23N2S2)]\\@
 The archive entry for this job was punched.


 QED = W**5 (WHICH WAS WHAT WE WANTED)
 Job cpu time:       0 days  2 hours 19 minutes 42.3 seconds.
 Elapsed time:       0 days  0 hours  5 minutes 37.3 seconds.
 File lengths (MBytes):  RWF=    768 Int=      0 D2E=      0 Chk=     48 Scr=     32
 Normal termination of Gaussian 16 at Mon Nov  6 21:31:28 2023.
