 Entering Gaussian System, Link 0=g16
 Initial command:
 /nfs-share/home/2100011873/Gaussian16_AVX2/g16/l1.exe "/nfs-share/home/2100011873/GaussTmp/Gau-215382.inp" -scrdir="/nfs-share/home/2100011873/GaussTmp/"
 Entering Link 1 = /nfs-share/home/2100011873/Gaussian16_AVX2/g16/l1.exe PID=    215383.
  
 Copyright (c) 1988-2021, Gaussian, Inc.  All Rights Reserved.
  
 This is part of the Gaussian(R) 16 program.  It is based on
 the Gaussian(R) 09 system (copyright 2009, Gaussian, Inc.),
 the Gaussian(R) 03 system (copyright 2003, Gaussian, Inc.),
 the Gaussian(R) 98 system (copyright 1998, Gaussian, Inc.),
 the Gaussian(R) 94 system (copyright 1995, Gaussian, Inc.),
 the Gaussian 92(TM) system (copyright 1992, Gaussian, Inc.),
 the Gaussian 90(TM) system (copyright 1990, Gaussian, Inc.),
 the Gaussian 88(TM) system (copyright 1988, Gaussian, Inc.),
 the Gaussian 86(TM) system (copyright 1986, Carnegie Mellon
 University), and the Gaussian 82(TM) system (copyright 1983,
 Carnegie Mellon University). Gaussian is a federally registered
 trademark of Gaussian, Inc.
  
 This software contains proprietary and confidential information,
 including trade secrets, belonging to Gaussian, Inc.
  
 This software is provided under written license and may be
 used, copied, transmitted, or stored only in accord with that
 written license.
  
 The following legend is applicable only to US Government
 contracts under FAR:
  
                    RESTRICTED RIGHTS LEGEND
  
 Use, reproduction and disclosure by the US Government is
 subject to restrictions as set forth in subparagraphs (a)
 and (c) of the Commercial Computer Software - Restricted
 Rights clause in FAR 52.227-19.
  
 Gaussian, Inc.
 340 Quinnipiac St., Bldg. 40, Wallingford CT 06492
  
  
 ---------------------------------------------------------------
 Warning -- This program may not be used in any manner that
 competes with the business of Gaussian, Inc. or will provide
 assistance to any competitor of Gaussian, Inc.  The licensee
 of this program is prohibited from giving any competitor of
 Gaussian, Inc. access to this program.  By using this program,
 the user acknowledges that Gaussian, Inc. is engaged in the
 business of creating and licensing software in the field of
 computational chemistry and represents and warrants to the
 licensee that it is not a competitor of Gaussian, Inc. and that
 it will not use this program in any manner prohibited above.
 ---------------------------------------------------------------
  

 Cite this work as:
 Gaussian 16, Revision C.02,
 M. J. Frisch, G. W. Trucks, H. B. Schlegel, G. E. Scuseria, 
 M. A. Robb, J. R. Cheeseman, G. Scalmani, V. Barone, 
 G. A. Petersson, H. Nakatsuji, X. Li, M. Caricato, A. V. Marenich, 
 J. Bloino, B. G. Janesko, R. Gomperts, B. Mennucci, H. P. Hratchian, 
 J. V. Ortiz, A. F. Izmaylov, J. L. Sonnenberg, D. Williams-Young, 
 F. Ding, F. Lipparini, F. Egidi, J. Goings, B. Peng, A. Petrone, 
 T. Henderson, D. Ranasinghe, V. G. Zakrzewski, J. Gao, N. Rega, 
 G. Zheng, W. Liang, M. Hada, M. Ehara, K. Toyota, R. Fukuda, 
 J. Hasegawa, M. Ishida, T. Nakajima, Y. Honda, O. Kitao, H. Nakai, 
 T. Vreven, K. Throssell, J. A. Montgomery, Jr., J. E. Peralta, 
 F. Ogliaro, M. J. Bearpark, J. J. Heyd, E. N. Brothers, K. N. Kudin, 
 V. N. Staroverov, T. A. Keith, R. Kobayashi, J. Normand, 
 K. Raghavachari, A. P. Rendell, J. C. Burant, S. S. Iyengar, 
 J. Tomasi, M. Cossi, J. M. Millam, M. Klene, C. Adamo, R. Cammi, 
 J. W. Ochterski, R. L. Martin, K. Morokuma, O. Farkas, 
 J. B. Foresman, and D. J. Fox, Gaussian, Inc., Wallingford CT, 2019.
 
 ******************************************
 Gaussian 16:  ES64L-G16RevC.02  7-Dec-2021
                 6-Nov-2023 
 ******************************************
 %chk=B1.chk
 %nprocshared=36
 Will use up to   36 processors via shared memory.
 %mem=128GB
 ---------------------------------------------
 # opt b3lyp/6-31g* scrf(smd, solvent=ethanol)
 ---------------------------------------------
 1/18=20,19=15,26=3,38=1/1,3;
 2/9=110,12=2,17=6,18=5,40=1/2;
 3/5=1,6=6,7=1,11=2,25=1,30=1,70=32201,71=1,72=4,74=-5/1,2,3;
 4//1;
 5/5=2,38=5,53=4/2;
 6/7=2,8=2,9=2,10=2,28=1/1;
 7//1,2,3,16;
 1/18=20,19=15,26=3/3(2);
 2/9=110/2;
 99//99;
 2/9=110/2;
 3/5=1,6=6,7=1,11=2,25=1,30=1,70=32205,71=1,72=4,74=-5/1,2,3;
 4/5=5,16=3,69=1/1;
 5/5=2,38=5,53=4/2;
 7//1,2,3,16;
 1/18=20,19=15,26=3/3(-5);
 2/9=110/2;
 6/7=2,8=2,9=2,10=2,19=2,28=1/1;
 99/9=1/99;
 ---
 B-1
 ---
 Symbolic Z-matrix:
 Charge =  0 Multiplicity = 1
 C                    -13.19325  -1.96518   0.35751 
 C                    -14.15023  -1.3663   -0.66684 
 C                    -14.19793   0.14589  -0.46999 
 C                    -12.83989   0.78112  -0.26594 
 C                    -11.69919   0.06912  -0.02054 
 C                    -11.73425  -1.46329   0.19794 
 C                    -10.43464   0.80864   0.02792 
 C                    -9.1477    0.36849   0.05193 
 C                    -7.97098   1.21881   0.06402 
 C                    -6.73848   0.61877   0.06999 
 C                    -5.44585   1.23802   0.07821 
 C                    -4.28033   0.52598   0.08121 
 C                    -2.9426    1.06363   0.08601 
 C                    -1.88552   0.18504   0.0869 
 C                    -0.48836   0.47987   0.08838 
 C                     0.48836  -0.47988   0.08838 
 C                     1.88552  -0.18505   0.0869 
 C                     2.9426   -1.06364   0.08601 
 C                     4.28033  -0.52598   0.08121 
 C                     5.44585  -1.23802   0.07821 
 C                     6.73848  -0.61878   0.06999 
 C                     7.97098  -1.21882   0.06402 
 C                     9.1477   -0.36849   0.05193 
 C                     10.43464  -0.80864   0.02791 
 C                     11.69919  -0.06911  -0.02054 
 C                     11.73425   1.4633    0.19794 
 C                    -11.0146  -1.85387   1.51323 
 C                    -11.08758  -2.20926  -0.99638 
 C                    -12.87893   2.29364  -0.39889 
 C                     13.19324   1.96519   0.35753 
 C                     14.15024   1.36631  -0.66682 
 C                     14.19793  -0.14588  -0.46997 
 C                     12.83989  -0.78111  -0.26594 
 C                     11.01458   1.85387   1.51322 
 C                     11.08758   2.20926  -0.99639 
 C                     12.87893  -2.29364  -0.39888 
 C                     8.15656  -2.71718   0.0685 
 C                     2.76951  -2.56424   0.08879 
 C                    -2.7695    2.56423   0.08879 
 C                    -8.15656   2.71718   0.0685 
 H                    -13.55224  -1.70444   1.36372 
 H                    -13.19179  -3.06159   0.30296 
 H                    -15.15315  -1.79827  -0.56305 
 H                    -13.81309  -1.59776  -1.68519 
 H                    -14.83673   0.39264   0.39555 
 H                    -14.68517   0.6313   -1.32865 
 H                    -10.55321   1.88625  -0.00013 
 H                    -8.93157  -0.69442   0.04825 
 H                    -6.72719  -0.47229   0.0666 
 H                    -5.39419   2.32333   0.08055 
 H                    -4.35407  -0.56241   0.07851 
 H                    -2.13643  -0.87673   0.08526 
 H                    -0.17247   1.5217    0.08852 
 H                     0.17247  -1.52171   0.08852 
 H                     2.13644   0.87672   0.08527 
 H                     4.35407   0.5624    0.07851 
 H                     5.39419  -2.32334   0.08054 
 H                     6.72719   0.47229   0.06659 
 H                     8.93157   0.69442   0.04824 
 H                     10.55321  -1.88625  -0.00012 
 H                    -11.41656  -1.28058   2.35641 
 H                    -11.18397  -2.91813   1.72001 
 H                    -9.93616  -1.69087   1.48859 
 H                    -10.06227  -1.88498  -1.18781 
 H                    -11.06723  -3.28878  -0.80027 
 H                    -11.65314  -2.04558  -1.91992 
 H                    -13.91376   2.64896  -0.35064 
 H                    -12.32451   2.80958   0.39214 
 H                    -12.46878   2.63324  -1.36008 
 H                     13.19178   3.06159   0.30298 
 H                     13.55222   1.70445   1.36374 
 H                     15.15315   1.79828  -0.56302 
 H                     13.8131   1.59777  -1.68517 
 H                     14.83673  -0.39263   0.39557 
 H                     14.68518  -0.63129  -1.32863 
 H                     11.18393   2.91814   1.72 
 H                     9.93614   1.69087   1.48856 
 H                     11.41653   1.28059   2.3564 
 H                     10.06228   1.88498  -1.18783 
 H                     11.06723   3.28878  -0.80029 
 H                     11.65315   2.04558  -1.91993 
 H                     13.91377  -2.64895  -0.35064 
 H                     12.32452  -2.80958   0.39214 
 H                     12.46878  -2.63323  -1.36007 
 H                     8.74409  -3.03646   0.93873 
 H                     7.20915  -3.25795   0.09305 
 H                     8.70422  -3.04723  -0.82368 
 H                     3.24804  -3.01107   0.96953 
 H                     1.72147  -2.86803   0.09271 
 H                     3.24239  -3.01383  -0.79361 
 H                    -3.2424    3.01383  -0.7936 
 H                    -3.24802   3.01106   0.96955 
 H                    -1.72147   2.86802   0.09269 
 H                    -7.20914   3.25794   0.09306 
 H                    -8.70421   3.04723  -0.82368 
 H                    -8.74409   3.03646   0.93873 
 

 GradGradGradGradGradGradGradGradGradGradGradGradGradGradGradGradGradGrad
 Berny optimization.
 Initialization pass.
                           ----------------------------
                           !    Initial Parameters    !
                           ! (Angstroms and Degrees)  !
 --------------------------                            --------------------------
 ! Name  Definition              Value          Derivative Info.                !
 --------------------------------------------------------------------------------
 ! R1    R(1,2)                  1.5244         estimate D2E/DX2                !
 ! R2    R(1,6)                  1.5511         estimate D2E/DX2                !
 ! R3    R(1,41)                 1.0997         estimate D2E/DX2                !
 ! R4    R(1,42)                 1.0978         estimate D2E/DX2                !
 ! R5    R(2,3)                  1.5257         estimate D2E/DX2                !
 ! R6    R(2,43)                 1.0969         estimate D2E/DX2                !
 ! R7    R(2,44)                 1.0974         estimate D2E/DX2                !
 ! R8    R(3,4)                  1.5131         estimate D2E/DX2                !
 ! R9    R(3,45)                 1.1037         estimate D2E/DX2                !
 ! R10   R(3,46)                 1.1001         estimate D2E/DX2                !
 ! R11   R(4,5)                  1.3669         estimate D2E/DX2                !
 ! R12   R(4,29)                 1.5189         estimate D2E/DX2                !
 ! R13   R(5,6)                  1.5483         estimate D2E/DX2                !
 ! R14   R(5,7)                  1.4657         estimate D2E/DX2                !
 ! R15   R(6,27)                 1.5493         estimate D2E/DX2                !
 ! R16   R(6,28)                 1.5495         estimate D2E/DX2                !
 ! R17   R(7,8)                  1.3603         estimate D2E/DX2                !
 ! R18   R(7,47)                 1.0845         estimate D2E/DX2                !
 ! R19   R(8,9)                  1.4519         estimate D2E/DX2                !
 ! R20   R(8,48)                 1.0847         estimate D2E/DX2                !
 ! R21   R(9,10)                 1.3708         estimate D2E/DX2                !
 ! R22   R(9,40)                 1.5098         estimate D2E/DX2                !
 ! R23   R(10,11)                1.4333         estimate D2E/DX2                !
 ! R24   R(10,49)                1.0911         estimate D2E/DX2                !
 ! R25   R(11,12)                1.3658         estimate D2E/DX2                !
 ! R26   R(11,50)                1.0865         estimate D2E/DX2                !
 ! R27   R(12,13)                1.4417         estimate D2E/DX2                !
 ! R28   R(12,51)                1.0909         estimate D2E/DX2                !
 ! R29   R(13,14)                1.3745         estimate D2E/DX2                !
 ! R30   R(13,39)                1.5106         estimate D2E/DX2                !
 ! R31   R(14,15)                1.4279         estimate D2E/DX2                !
 ! R32   R(14,52)                1.091          estimate D2E/DX2                !
 ! R33   R(15,16)                1.3693         estimate D2E/DX2                !
 ! R34   R(15,53)                1.0887         estimate D2E/DX2                !
 ! R35   R(16,17)                1.4279         estimate D2E/DX2                !
 ! R36   R(16,54)                1.0887         estimate D2E/DX2                !
 ! R37   R(17,18)                1.3745         estimate D2E/DX2                !
 ! R38   R(17,55)                1.091          estimate D2E/DX2                !
 ! R39   R(18,19)                1.4417         estimate D2E/DX2                !
 ! R40   R(18,38)                1.5106         estimate D2E/DX2                !
 ! R41   R(19,20)                1.3658         estimate D2E/DX2                !
 ! R42   R(19,56)                1.0909         estimate D2E/DX2                !
 ! R43   R(20,21)                1.4333         estimate D2E/DX2                !
 ! R44   R(20,57)                1.0865         estimate D2E/DX2                !
 ! R45   R(21,22)                1.3708         estimate D2E/DX2                !
 ! R46   R(21,58)                1.0911         estimate D2E/DX2                !
 ! R47   R(22,23)                1.4519         estimate D2E/DX2                !
 ! R48   R(22,37)                1.5098         estimate D2E/DX2                !
 ! R49   R(23,24)                1.3603         estimate D2E/DX2                !
 ! R50   R(23,59)                1.0847         estimate D2E/DX2                !
 ! R51   R(24,25)                1.4657         estimate D2E/DX2                !
 ! R52   R(24,60)                1.0845         estimate D2E/DX2                !
 ! R53   R(25,26)                1.5483         estimate D2E/DX2                !
 ! R54   R(25,33)                1.3669         estimate D2E/DX2                !
 ! R55   R(26,30)                1.5511         estimate D2E/DX2                !
 ! R56   R(26,34)                1.5493         estimate D2E/DX2                !
 ! R57   R(26,35)                1.5495         estimate D2E/DX2                !
 ! R58   R(27,61)                1.096          estimate D2E/DX2                !
 ! R59   R(27,62)                1.0973         estimate D2E/DX2                !
 ! R60   R(27,63)                1.091          estimate D2E/DX2                !
 ! R61   R(28,64)                1.0923         estimate D2E/DX2                !
 ! R62   R(28,65)                1.0974         estimate D2E/DX2                !
 ! R63   R(28,66)                1.0953         estimate D2E/DX2                !
 ! R64   R(29,67)                1.0952         estimate D2E/DX2                !
 ! R65   R(29,68)                1.0951         estimate D2E/DX2                !
 ! R66   R(29,69)                1.0988         estimate D2E/DX2                !
 ! R67   R(30,31)                1.5244         estimate D2E/DX2                !
 ! R68   R(30,70)                1.0978         estimate D2E/DX2                !
 ! R69   R(30,71)                1.0997         estimate D2E/DX2                !
 ! R70   R(31,32)                1.5257         estimate D2E/DX2                !
 ! R71   R(31,72)                1.0969         estimate D2E/DX2                !
 ! R72   R(31,73)                1.0974         estimate D2E/DX2                !
 ! R73   R(32,33)                1.5131         estimate D2E/DX2                !
 ! R74   R(32,74)                1.1037         estimate D2E/DX2                !
 ! R75   R(32,75)                1.1001         estimate D2E/DX2                !
 ! R76   R(33,36)                1.5189         estimate D2E/DX2                !
 ! R77   R(34,76)                1.0973         estimate D2E/DX2                !
 ! R78   R(34,77)                1.091          estimate D2E/DX2                !
 ! R79   R(34,78)                1.096          estimate D2E/DX2                !
 ! R80   R(35,79)                1.0923         estimate D2E/DX2                !
 ! R81   R(35,80)                1.0974         estimate D2E/DX2                !
 ! R82   R(35,81)                1.0953         estimate D2E/DX2                !
 ! R83   R(36,82)                1.0952         estimate D2E/DX2                !
 ! R84   R(36,83)                1.0951         estimate D2E/DX2                !
 ! R85   R(36,84)                1.0988         estimate D2E/DX2                !
 ! R86   R(37,85)                1.0975         estimate D2E/DX2                !
 ! R87   R(37,86)                1.0912         estimate D2E/DX2                !
 ! R88   R(37,87)                1.0977         estimate D2E/DX2                !
 ! R89   R(38,88)                1.0974         estimate D2E/DX2                !
 ! R90   R(38,89)                1.0912         estimate D2E/DX2                !
 ! R91   R(38,90)                1.0974         estimate D2E/DX2                !
 ! R92   R(39,91)                1.0974         estimate D2E/DX2                !
 ! R93   R(39,92)                1.0974         estimate D2E/DX2                !
 ! R94   R(39,93)                1.0912         estimate D2E/DX2                !
 ! R95   R(40,94)                1.0912         estimate D2E/DX2                !
 ! R96   R(40,95)                1.0977         estimate D2E/DX2                !
 ! R97   R(40,96)                1.0975         estimate D2E/DX2                !
 ! A1    A(2,1,6)              113.2189         estimate D2E/DX2                !
 ! A2    A(2,1,41)             108.4673         estimate D2E/DX2                !
 ! A3    A(2,1,42)             111.0892         estimate D2E/DX2                !
 ! A4    A(6,1,41)             108.9336         estimate D2E/DX2                !
 ! A5    A(6,1,42)             108.4696         estimate D2E/DX2                !
 ! A6    A(41,1,42)            106.422          estimate D2E/DX2                !
 ! A7    A(1,2,3)              108.8029         estimate D2E/DX2                !
 ! A8    A(1,2,43)             110.836          estimate D2E/DX2                !
 ! A9    A(1,2,44)             110.3553         estimate D2E/DX2                !
 ! A10   A(3,2,43)             110.4586         estimate D2E/DX2                !
 ! A11   A(3,2,44)             109.7785         estimate D2E/DX2                !
 ! A12   A(43,2,44)            106.5968         estimate D2E/DX2                !
 ! A13   A(2,3,4)              113.9193         estimate D2E/DX2                !
 ! A14   A(2,3,45)             109.93           estimate D2E/DX2                !
 ! A15   A(2,3,46)             110.5155         estimate D2E/DX2                !
 ! A16   A(4,3,45)             108.6552         estimate D2E/DX2                !
 ! A17   A(4,3,46)             108.5129         estimate D2E/DX2                !
 ! A18   A(45,3,46)            104.898          estimate D2E/DX2                !
 ! A19   A(3,4,5)              123.6789         estimate D2E/DX2                !
 ! A20   A(3,4,29)             112.5321         estimate D2E/DX2                !
 ! A21   A(5,4,29)             123.7721         estimate D2E/DX2                !
 ! A22   A(4,5,6)              121.4656         estimate D2E/DX2                !
 ! A23   A(4,5,7)              117.5878         estimate D2E/DX2                !
 ! A24   A(6,5,7)              120.9466         estimate D2E/DX2                !
 ! A25   A(1,6,5)              110.8582         estimate D2E/DX2                !
 ! A26   A(1,6,27)             105.5451         estimate D2E/DX2                !
 ! A27   A(1,6,28)             108.4256         estimate D2E/DX2                !
 ! A28   A(5,6,27)             111.025          estimate D2E/DX2                !
 ! A29   A(5,6,28)             110.9934         estimate D2E/DX2                !
 ! A30   A(27,6,28)            109.8233         estimate D2E/DX2                !
 ! A31   A(5,7,8)              130.8086         estimate D2E/DX2                !
 ! A32   A(5,7,47)             113.9644         estimate D2E/DX2                !
 ! A33   A(8,7,47)             115.176          estimate D2E/DX2                !
 ! A34   A(7,8,9)              125.2684         estimate D2E/DX2                !
 ! A35   A(7,8,48)             120.3655         estimate D2E/DX2                !
 ! A36   A(9,8,48)             114.36           estimate D2E/DX2                !
 ! A37   A(8,9,10)             118.1891         estimate D2E/DX2                !
 ! A38   A(8,9,40)             118.7928         estimate D2E/DX2                !
 ! A39   A(10,9,40)            123.018          estimate D2E/DX2                !
 ! A40   A(9,10,11)            128.4446         estimate D2E/DX2                !
 ! A41   A(9,10,49)            116.5507         estimate D2E/DX2                !
 ! A42   A(11,10,49)           115.0046         estimate D2E/DX2                !
 ! A43   A(10,11,12)           122.9816         estimate D2E/DX2                !
 ! A44   A(10,11,50)           118.3221         estimate D2E/DX2                !
 ! A45   A(12,11,50)           118.6962         estimate D2E/DX2                !
 ! A46   A(11,12,13)           126.6827         estimate D2E/DX2                !
 ! A47   A(11,12,51)           117.5449         estimate D2E/DX2                !
 ! A48   A(13,12,51)           115.7724         estimate D2E/DX2                !
 ! A49   A(12,13,14)           118.3726         estimate D2E/DX2                !
 ! A50   A(12,13,39)           118.4761         estimate D2E/DX2                !
 ! A51   A(14,13,39)           123.1513         estimate D2E/DX2                !
 ! A52   A(13,14,15)           128.3526         estimate D2E/DX2                !
 ! A53   A(13,14,52)           116.4355         estimate D2E/DX2                !
 ! A54   A(15,14,52)           115.2118         estimate D2E/DX2                !
 ! A55   A(14,15,16)           123.5864         estimate D2E/DX2                !
 ! A56   A(14,15,53)           118.7835         estimate D2E/DX2                !
 ! A57   A(16,15,53)           117.63           estimate D2E/DX2                !
 ! A58   A(15,16,17)           123.5865         estimate D2E/DX2                !
 ! A59   A(15,16,54)           117.6299         estimate D2E/DX2                !
 ! A60   A(17,16,54)           118.7836         estimate D2E/DX2                !
 ! A61   A(16,17,18)           128.3527         estimate D2E/DX2                !
 ! A62   A(16,17,55)           115.2118         estimate D2E/DX2                !
 ! A63   A(18,17,55)           116.4355         estimate D2E/DX2                !
 ! A64   A(17,18,19)           118.3725         estimate D2E/DX2                !
 ! A65   A(17,18,38)           123.1513         estimate D2E/DX2                !
 ! A66   A(19,18,38)           118.4761         estimate D2E/DX2                !
 ! A67   A(18,19,20)           126.6827         estimate D2E/DX2                !
 ! A68   A(18,19,56)           115.7724         estimate D2E/DX2                !
 ! A69   A(20,19,56)           117.5449         estimate D2E/DX2                !
 ! A70   A(19,20,21)           122.9815         estimate D2E/DX2                !
 ! A71   A(19,20,57)           118.6963         estimate D2E/DX2                !
 ! A72   A(21,20,57)           118.3221         estimate D2E/DX2                !
 ! A73   A(20,21,22)           128.4446         estimate D2E/DX2                !
 ! A74   A(20,21,58)           115.0046         estimate D2E/DX2                !
 ! A75   A(22,21,58)           116.5506         estimate D2E/DX2                !
 ! A76   A(21,22,23)           118.1891         estimate D2E/DX2                !
 ! A77   A(21,22,37)           123.0181         estimate D2E/DX2                !
 ! A78   A(23,22,37)           118.7928         estimate D2E/DX2                !
 ! A79   A(22,23,24)           125.2684         estimate D2E/DX2                !
 ! A80   A(22,23,59)           114.3599         estimate D2E/DX2                !
 ! A81   A(24,23,59)           120.3657         estimate D2E/DX2                !
 ! A82   A(23,24,25)           130.8086         estimate D2E/DX2                !
 ! A83   A(23,24,60)           115.1761         estimate D2E/DX2                !
 ! A84   A(25,24,60)           113.9644         estimate D2E/DX2                !
 ! A85   A(24,25,26)           120.9465         estimate D2E/DX2                !
 ! A86   A(24,25,33)           117.5879         estimate D2E/DX2                !
 ! A87   A(26,25,33)           121.4656         estimate D2E/DX2                !
 ! A88   A(25,26,30)           110.8581         estimate D2E/DX2                !
 ! A89   A(25,26,34)           111.0249         estimate D2E/DX2                !
 ! A90   A(25,26,35)           110.9934         estimate D2E/DX2                !
 ! A91   A(30,26,34)           105.5453         estimate D2E/DX2                !
 ! A92   A(30,26,35)           108.4257         estimate D2E/DX2                !
 ! A93   A(34,26,35)           109.8232         estimate D2E/DX2                !
 ! A94   A(6,27,61)            110.5424         estimate D2E/DX2                !
 ! A95   A(6,27,62)            109.4377         estimate D2E/DX2                !
 ! A96   A(6,27,63)            113.723          estimate D2E/DX2                !
 ! A97   A(61,27,62)           107.8028         estimate D2E/DX2                !
 ! A98   A(61,27,63)           107.5643         estimate D2E/DX2                !
 ! A99   A(62,27,63)           107.5619         estimate D2E/DX2                !
 ! A100  A(6,28,64)            112.5762         estimate D2E/DX2                !
 ! A101  A(6,28,65)            110.0953         estimate D2E/DX2                !
 ! A102  A(6,28,66)            111.2526         estimate D2E/DX2                !
 ! A103  A(64,28,65)           107.8162         estimate D2E/DX2                !
 ! A104  A(64,28,66)           107.0117         estimate D2E/DX2                !
 ! A105  A(65,28,66)           107.8947         estimate D2E/DX2                !
 ! A106  A(4,29,67)            110.0908         estimate D2E/DX2                !
 ! A107  A(4,29,68)            113.1366         estimate D2E/DX2                !
 ! A108  A(4,29,69)            112.0076         estimate D2E/DX2                !
 ! A109  A(67,29,68)           107.0788         estimate D2E/DX2                !
 ! A110  A(67,29,69)           106.9154         estimate D2E/DX2                !
 ! A111  A(68,29,69)           107.2937         estimate D2E/DX2                !
 ! A112  A(26,30,31)           113.2189         estimate D2E/DX2                !
 ! A113  A(26,30,70)           108.4695         estimate D2E/DX2                !
 ! A114  A(26,30,71)           108.9337         estimate D2E/DX2                !
 ! A115  A(31,30,70)           111.0892         estimate D2E/DX2                !
 ! A116  A(31,30,71)           108.4672         estimate D2E/DX2                !
 ! A117  A(70,30,71)           106.4219         estimate D2E/DX2                !
 ! A118  A(30,31,32)           108.8029         estimate D2E/DX2                !
 ! A119  A(30,31,72)           110.836          estimate D2E/DX2                !
 ! A120  A(30,31,73)           110.3553         estimate D2E/DX2                !
 ! A121  A(32,31,72)           110.4587         estimate D2E/DX2                !
 ! A122  A(32,31,73)           109.7785         estimate D2E/DX2                !
 ! A123  A(72,31,73)           106.5968         estimate D2E/DX2                !
 ! A124  A(31,32,33)           113.9193         estimate D2E/DX2                !
 ! A125  A(31,32,74)           109.93           estimate D2E/DX2                !
 ! A126  A(31,32,75)           110.5156         estimate D2E/DX2                !
 ! A127  A(33,32,74)           108.655          estimate D2E/DX2                !
 ! A128  A(33,32,75)           108.5129         estimate D2E/DX2                !
 ! A129  A(74,32,75)           104.898          estimate D2E/DX2                !
 ! A130  A(25,33,32)           123.6789         estimate D2E/DX2                !
 ! A131  A(25,33,36)           123.772          estimate D2E/DX2                !
 ! A132  A(32,33,36)           112.5322         estimate D2E/DX2                !
 ! A133  A(26,34,76)           109.4376         estimate D2E/DX2                !
 ! A134  A(26,34,77)           113.7229         estimate D2E/DX2                !
 ! A135  A(26,34,78)           110.5425         estimate D2E/DX2                !
 ! A136  A(76,34,77)           107.5619         estimate D2E/DX2                !
 ! A137  A(76,34,78)           107.8029         estimate D2E/DX2                !
 ! A138  A(77,34,78)           107.5643         estimate D2E/DX2                !
 ! A139  A(26,35,79)           112.5762         estimate D2E/DX2                !
 ! A140  A(26,35,80)           110.0953         estimate D2E/DX2                !
 ! A141  A(26,35,81)           111.2527         estimate D2E/DX2                !
 ! A142  A(79,35,80)           107.8162         estimate D2E/DX2                !
 ! A143  A(79,35,81)           107.0116         estimate D2E/DX2                !
 ! A144  A(80,35,81)           107.8946         estimate D2E/DX2                !
 ! A145  A(33,36,82)           110.0909         estimate D2E/DX2                !
 ! A146  A(33,36,83)           113.1367         estimate D2E/DX2                !
 ! A147  A(33,36,84)           112.0077         estimate D2E/DX2                !
 ! A148  A(82,36,83)           107.0788         estimate D2E/DX2                !
 ! A149  A(82,36,84)           106.9154         estimate D2E/DX2                !
 ! A150  A(83,36,84)           107.2937         estimate D2E/DX2                !
 ! A151  A(22,37,85)           110.9083         estimate D2E/DX2                !
 ! A152  A(22,37,86)           112.6543         estimate D2E/DX2                !
 ! A153  A(22,37,87)           110.9359         estimate D2E/DX2                !
 ! A154  A(85,37,86)           107.6262         estimate D2E/DX2                !
 ! A155  A(85,37,87)           106.8538         estimate D2E/DX2                !
 ! A156  A(86,37,87)           107.6065         estimate D2E/DX2                !
 ! A157  A(18,38,88)           110.854          estimate D2E/DX2                !
 ! A158  A(18,38,89)           112.745          estimate D2E/DX2                !
 ! A159  A(18,38,90)           110.8619         estimate D2E/DX2                !
 ! A160  A(88,38,89)           107.6119         estimate D2E/DX2                !
 ! A161  A(88,38,90)           106.894          estimate D2E/DX2                !
 ! A162  A(89,38,90)           107.6192         estimate D2E/DX2                !
 ! A163  A(13,39,91)           110.8619         estimate D2E/DX2                !
 ! A164  A(13,39,92)           110.854          estimate D2E/DX2                !
 ! A165  A(13,39,93)           112.745          estimate D2E/DX2                !
 ! A166  A(91,39,92)           106.8941         estimate D2E/DX2                !
 ! A167  A(91,39,93)           107.6192         estimate D2E/DX2                !
 ! A168  A(92,39,93)           107.6119         estimate D2E/DX2                !
 ! A169  A(9,40,94)            112.6543         estimate D2E/DX2                !
 ! A170  A(9,40,95)            110.9358         estimate D2E/DX2                !
 ! A171  A(9,40,96)            110.9082         estimate D2E/DX2                !
 ! A172  A(94,40,95)           107.6066         estimate D2E/DX2                !
 ! A173  A(94,40,96)           107.6262         estimate D2E/DX2                !
 ! A174  A(95,40,96)           106.8537         estimate D2E/DX2                !
 ! D1    D(6,1,2,3)            -62.2484         estimate D2E/DX2                !
 ! D2    D(6,1,2,43)           176.1066         estimate D2E/DX2                !
 ! D3    D(6,1,2,44)            58.2553         estimate D2E/DX2                !
 ! D4    D(41,1,2,3)            58.7827         estimate D2E/DX2                !
 ! D5    D(41,1,2,43)          -62.8623         estimate D2E/DX2                !
 ! D6    D(41,1,2,44)          179.2864         estimate D2E/DX2                !
 ! D7    D(42,1,2,3)           175.4139         estimate D2E/DX2                !
 ! D8    D(42,1,2,43)           53.7689         estimate D2E/DX2                !
 ! D9    D(42,1,2,44)          -64.0824         estimate D2E/DX2                !
 ! D10   D(2,1,6,5)             44.7578         estimate D2E/DX2                !
 ! D11   D(2,1,6,27)           165.0563         estimate D2E/DX2                !
 ! D12   D(2,1,6,28)           -77.3181         estimate D2E/DX2                !
 ! D13   D(41,1,6,5)           -76.0096         estimate D2E/DX2                !
 ! D14   D(41,1,6,27)           44.289          estimate D2E/DX2                !
 ! D15   D(41,1,6,28)          161.9145         estimate D2E/DX2                !
 ! D16   D(42,1,6,5)           168.5428         estimate D2E/DX2                !
 ! D17   D(42,1,6,27)          -71.1586         estimate D2E/DX2                !
 ! D18   D(42,1,6,28)           46.4669         estimate D2E/DX2                !
 ! D19   D(1,2,3,4)             44.2522         estimate D2E/DX2                !
 ! D20   D(1,2,3,45)           -77.9588         estimate D2E/DX2                !
 ! D21   D(1,2,3,46)           166.7211         estimate D2E/DX2                !
 ! D22   D(43,2,3,4)           166.127          estimate D2E/DX2                !
 ! D23   D(43,2,3,45)           43.916          estimate D2E/DX2                !
 ! D24   D(43,2,3,46)          -71.4041         estimate D2E/DX2                !
 ! D25   D(44,2,3,4)           -76.6065         estimate D2E/DX2                !
 ! D26   D(44,2,3,45)          161.1824         estimate D2E/DX2                !
 ! D27   D(44,2,3,46)           45.8624         estimate D2E/DX2                !
 ! D28   D(2,3,4,5)            -12.0074         estimate D2E/DX2                !
 ! D29   D(2,3,4,29)           166.5431         estimate D2E/DX2                !
 ! D30   D(45,3,4,5)           110.9025         estimate D2E/DX2                !
 ! D31   D(45,3,4,29)          -70.5469         estimate D2E/DX2                !
 ! D32   D(46,3,4,5)          -135.5686         estimate D2E/DX2                !
 ! D33   D(46,3,4,29)           42.9819         estimate D2E/DX2                !
 ! D34   D(3,4,5,6)             -5.7084         estimate D2E/DX2                !
 ! D35   D(3,4,5,7)            174.2358         estimate D2E/DX2                !
 ! D36   D(29,4,5,6)           175.9023         estimate D2E/DX2                !
 ! D37   D(29,4,5,7)            -4.1535         estimate D2E/DX2                !
 ! D38   D(3,4,29,67)           15.0895         estimate D2E/DX2                !
 ! D39   D(3,4,29,68)          134.8488         estimate D2E/DX2                !
 ! D40   D(3,4,29,69)         -103.7264         estimate D2E/DX2                !
 ! D41   D(5,4,29,67)         -166.3615         estimate D2E/DX2                !
 ! D42   D(5,4,29,68)          -46.6023         estimate D2E/DX2                !
 ! D43   D(5,4,29,69)           74.8226         estimate D2E/DX2                !
 ! D44   D(4,5,6,1)            -10.465          estimate D2E/DX2                !
 ! D45   D(4,5,6,27)          -127.4464         estimate D2E/DX2                !
 ! D46   D(4,5,6,28)           110.099          estimate D2E/DX2                !
 ! D47   D(7,5,6,1)            169.5927         estimate D2E/DX2                !
 ! D48   D(7,5,6,27)            52.6113         estimate D2E/DX2                !
 ! D49   D(7,5,6,28)           -69.8433         estimate D2E/DX2                !
 ! D50   D(4,5,7,8)           -169.0167         estimate D2E/DX2                !
 ! D51   D(4,5,7,47)             8.2193         estimate D2E/DX2                !
 ! D52   D(6,5,7,8)             10.9278         estimate D2E/DX2                !
 ! D53   D(6,5,7,47)          -171.8362         estimate D2E/DX2                !
 ! D54   D(1,6,27,61)          -67.2475         estimate D2E/DX2                !
 ! D55   D(1,6,27,62)           51.3385         estimate D2E/DX2                !
 ! D56   D(1,6,27,63)          171.6422         estimate D2E/DX2                !
 ! D57   D(5,6,27,61)           52.9415         estimate D2E/DX2                !
 ! D58   D(5,6,27,62)          171.5275         estimate D2E/DX2                !
 ! D59   D(5,6,27,63)          -68.1687         estimate D2E/DX2                !
 ! D60   D(28,6,27,61)         176.0719         estimate D2E/DX2                !
 ! D61   D(28,6,27,62)         -65.3421         estimate D2E/DX2                !
 ! D62   D(28,6,27,63)          54.9617         estimate D2E/DX2                !
 ! D63   D(1,6,28,64)          178.3696         estimate D2E/DX2                !
 ! D64   D(1,6,28,65)          -61.3026         estimate D2E/DX2                !
 ! D65   D(1,6,28,66)           58.2587         estimate D2E/DX2                !
 ! D66   D(5,6,28,64)           56.3763         estimate D2E/DX2                !
 ! D67   D(5,6,28,65)          176.7042         estimate D2E/DX2                !
 ! D68   D(5,6,28,66)          -63.7345         estimate D2E/DX2                !
 ! D69   D(27,6,28,64)         -66.7726         estimate D2E/DX2                !
 ! D70   D(27,6,28,65)          53.5552         estimate D2E/DX2                !
 ! D71   D(27,6,28,66)         173.1165         estimate D2E/DX2                !
 ! D72   D(5,7,8,9)            178.2396         estimate D2E/DX2                !
 ! D73   D(5,7,8,48)            -0.811          estimate D2E/DX2                !
 ! D74   D(47,7,8,9)             1.0306         estimate D2E/DX2                !
 ! D75   D(47,7,8,48)         -178.0201         estimate D2E/DX2                !
 ! D76   D(7,8,9,10)          -179.1256         estimate D2E/DX2                !
 ! D77   D(7,8,9,40)             0.8335         estimate D2E/DX2                !
 ! D78   D(48,8,9,10)           -0.0248         estimate D2E/DX2                !
 ! D79   D(48,8,9,40)          179.9344         estimate D2E/DX2                !
 ! D80   D(8,9,10,11)          179.8138         estimate D2E/DX2                !
 ! D81   D(8,9,10,49)           -0.0835         estimate D2E/DX2                !
 ! D82   D(40,9,10,11)          -0.1436         estimate D2E/DX2                !
 ! D83   D(40,9,10,49)         179.9592         estimate D2E/DX2                !
 ! D84   D(8,9,40,94)          179.1245         estimate D2E/DX2                !
 ! D85   D(8,9,40,95)          -60.1708         estimate D2E/DX2                !
 ! D86   D(8,9,40,96)           58.4141         estimate D2E/DX2                !
 ! D87   D(10,9,40,94)          -0.9185         estimate D2E/DX2                !
 ! D88   D(10,9,40,95)         119.7863         estimate D2E/DX2                !
 ! D89   D(10,9,40,96)        -121.6289         estimate D2E/DX2                !
 ! D90   D(9,10,11,12)        -179.8791         estimate D2E/DX2                !
 ! D91   D(9,10,11,50)           0.0207         estimate D2E/DX2                !
 ! D92   D(49,10,11,12)          0.0195         estimate D2E/DX2                !
 ! D93   D(49,10,11,50)        179.9193         estimate D2E/DX2                !
 ! D94   D(10,11,12,13)        179.8342         estimate D2E/DX2                !
 ! D95   D(10,11,12,51)         -0.0843         estimate D2E/DX2                !
 ! D96   D(50,11,12,13)         -0.0653         estimate D2E/DX2                !
 ! D97   D(50,11,12,51)       -179.9838         estimate D2E/DX2                !
 ! D98   D(11,12,13,14)       -179.9243         estimate D2E/DX2                !
 ! D99   D(11,12,13,39)          0.0315         estimate D2E/DX2                !
 ! D100  D(51,12,13,14)         -0.0045         estimate D2E/DX2                !
 ! D101  D(51,12,13,39)        179.9512         estimate D2E/DX2                !
 ! D102  D(12,13,14,15)        179.8497         estimate D2E/DX2                !
 ! D103  D(12,13,14,52)         -0.0822         estimate D2E/DX2                !
 ! D104  D(39,13,14,15)         -0.1038         estimate D2E/DX2                !
 ! D105  D(39,13,14,52)        179.9642         estimate D2E/DX2                !
 ! D106  D(12,13,39,91)        -59.2871         estimate D2E/DX2                !
 ! D107  D(12,13,39,92)         59.2658         estimate D2E/DX2                !
 ! D108  D(12,13,39,93)        179.9818         estimate D2E/DX2                !
 ! D109  D(14,13,39,91)        120.6664         estimate D2E/DX2                !
 ! D110  D(14,13,39,92)       -120.7807         estimate D2E/DX2                !
 ! D111  D(14,13,39,93)         -0.0647         estimate D2E/DX2                !
 ! D112  D(13,14,15,16)       -179.9602         estimate D2E/DX2                !
 ! D113  D(13,14,15,53)         -0.0238         estimate D2E/DX2                !
 ! D114  D(52,14,15,16)         -0.0275         estimate D2E/DX2                !
 ! D115  D(52,14,15,53)        179.9088         estimate D2E/DX2                !
 ! D116  D(14,15,16,17)        179.8573         estimate D2E/DX2                !
 ! D117  D(14,15,16,54)         -0.0797         estimate D2E/DX2                !
 ! D118  D(53,15,16,17)         -0.0797         estimate D2E/DX2                !
 ! D119  D(53,15,16,54)        179.9832         estimate D2E/DX2                !
 ! D120  D(15,16,17,18)       -179.9602         estimate D2E/DX2                !
 ! D121  D(15,16,17,55)         -0.0275         estimate D2E/DX2                !
 ! D122  D(54,16,17,18)         -0.0238         estimate D2E/DX2                !
 ! D123  D(54,16,17,55)        179.9089         estimate D2E/DX2                !
 ! D124  D(16,17,18,19)        179.8496         estimate D2E/DX2                !
 ! D125  D(16,17,18,38)         -0.1038         estimate D2E/DX2                !
 ! D126  D(55,17,18,19)         -0.0824         estimate D2E/DX2                !
 ! D127  D(55,17,18,38)        179.9642         estimate D2E/DX2                !
 ! D128  D(17,18,19,20)       -179.9241         estimate D2E/DX2                !
 ! D129  D(17,18,19,56)         -0.0043         estimate D2E/DX2                !
 ! D130  D(38,18,19,20)          0.0315         estimate D2E/DX2                !
 ! D131  D(38,18,19,56)        179.9513         estimate D2E/DX2                !
 ! D132  D(17,18,38,88)       -120.7817         estimate D2E/DX2                !
 ! D133  D(17,18,38,89)         -0.0657         estimate D2E/DX2                !
 ! D134  D(17,18,38,90)        120.6654         estimate D2E/DX2                !
 ! D135  D(19,18,38,88)         59.265          estimate D2E/DX2                !
 ! D136  D(19,18,38,89)        179.981          estimate D2E/DX2                !
 ! D137  D(19,18,38,90)        -59.2879         estimate D2E/DX2                !
 ! D138  D(18,19,20,21)        179.8341         estimate D2E/DX2                !
 ! D139  D(18,19,20,57)         -0.0653         estimate D2E/DX2                !
 ! D140  D(56,19,20,21)         -0.0844         estimate D2E/DX2                !
 ! D141  D(56,19,20,57)       -179.9838         estimate D2E/DX2                !
 ! D142  D(19,20,21,22)       -179.8793         estimate D2E/DX2                !
 ! D143  D(19,20,21,58)          0.0193         estimate D2E/DX2                !
 ! D144  D(57,20,21,22)          0.0205         estimate D2E/DX2                !
 ! D145  D(57,20,21,58)        179.919          estimate D2E/DX2                !
 ! D146  D(20,21,22,23)        179.8138         estimate D2E/DX2                !
 ! D147  D(20,21,22,37)         -0.1436         estimate D2E/DX2                !
 ! D148  D(58,21,22,23)         -0.0834         estimate D2E/DX2                !
 ! D149  D(58,21,22,37)        179.9591         estimate D2E/DX2                !
 ! D150  D(21,22,23,24)       -179.1259         estimate D2E/DX2                !
 ! D151  D(21,22,23,59)         -0.0251         estimate D2E/DX2                !
 ! D152  D(37,22,23,24)          0.8334         estimate D2E/DX2                !
 ! D153  D(37,22,23,59)        179.9342         estimate D2E/DX2                !
 ! D154  D(21,22,37,85)       -121.6282         estimate D2E/DX2                !
 ! D155  D(21,22,37,86)         -0.9178         estimate D2E/DX2                !
 ! D156  D(21,22,37,87)        119.7868         estimate D2E/DX2                !
 ! D157  D(23,22,37,85)         58.4146         estimate D2E/DX2                !
 ! D158  D(23,22,37,86)        179.125          estimate D2E/DX2                !
 ! D159  D(23,22,37,87)        -60.1703         estimate D2E/DX2                !
 ! D160  D(22,23,24,25)        178.2397         estimate D2E/DX2                !
 ! D161  D(22,23,24,60)          1.0304         estimate D2E/DX2                !
 ! D162  D(59,23,24,25)         -0.8109         estimate D2E/DX2                !
 ! D163  D(59,23,24,60)       -178.0202         estimate D2E/DX2                !
 ! D164  D(23,24,25,26)         10.928          estimate D2E/DX2                !
 ! D165  D(23,24,25,33)       -169.0168         estimate D2E/DX2                !
 ! D166  D(60,24,25,26)       -171.8359         estimate D2E/DX2                !
 ! D167  D(60,24,25,33)          8.2194         estimate D2E/DX2                !
 ! D168  D(24,25,26,30)        169.5921         estimate D2E/DX2                !
 ! D169  D(24,25,26,34)         52.6106         estimate D2E/DX2                !
 ! D170  D(24,25,26,35)        -69.8438         estimate D2E/DX2                !
 ! D171  D(33,25,26,30)        -10.4653         estimate D2E/DX2                !
 ! D172  D(33,25,26,34)       -127.4468         estimate D2E/DX2                !
 ! D173  D(33,25,26,35)        110.0988         estimate D2E/DX2                !
 ! D174  D(24,25,33,32)        174.2364         estimate D2E/DX2                !
 ! D175  D(24,25,33,36)         -4.1531         estimate D2E/DX2                !
 ! D176  D(26,25,33,32)         -5.7081         estimate D2E/DX2                !
 ! D177  D(26,25,33,36)        175.9024         estimate D2E/DX2                !
 ! D178  D(25,26,30,31)         44.7579         estimate D2E/DX2                !
 ! D179  D(25,26,30,70)        168.5431         estimate D2E/DX2                !
 ! D180  D(25,26,30,71)        -76.0094         estimate D2E/DX2                !
 ! D181  D(34,26,30,31)        165.0564         estimate D2E/DX2                !
 ! D182  D(34,26,30,70)        -71.1584         estimate D2E/DX2                !
 ! D183  D(34,26,30,71)         44.2891         estimate D2E/DX2                !
 ! D184  D(35,26,30,31)        -77.318          estimate D2E/DX2                !
 ! D185  D(35,26,30,70)         46.4672         estimate D2E/DX2                !
 ! D186  D(35,26,30,71)        161.9147         estimate D2E/DX2                !
 ! D187  D(25,26,34,76)        171.5278         estimate D2E/DX2                !
 ! D188  D(25,26,34,77)        -68.1686         estimate D2E/DX2                !
 ! D189  D(25,26,34,78)         52.9416         estimate D2E/DX2                !
 ! D190  D(30,26,34,76)         51.3387         estimate D2E/DX2                !
 ! D191  D(30,26,34,77)        171.6424         estimate D2E/DX2                !
 ! D192  D(30,26,34,78)        -67.2474         estimate D2E/DX2                !
 ! D193  D(35,26,34,76)        -65.342          estimate D2E/DX2                !
 ! D194  D(35,26,34,77)         54.9617         estimate D2E/DX2                !
 ! D195  D(35,26,34,78)        176.0719         estimate D2E/DX2                !
 ! D196  D(25,26,35,79)         56.3763         estimate D2E/DX2                !
 ! D197  D(25,26,35,80)        176.7042         estimate D2E/DX2                !
 ! D198  D(25,26,35,81)        -63.7345         estimate D2E/DX2                !
 ! D199  D(30,26,35,79)        178.3695         estimate D2E/DX2                !
 ! D200  D(30,26,35,80)        -61.3026         estimate D2E/DX2                !
 ! D201  D(30,26,35,81)         58.2587         estimate D2E/DX2                !
 ! D202  D(34,26,35,79)        -66.7725         estimate D2E/DX2                !
 ! D203  D(34,26,35,80)         53.5554         estimate D2E/DX2                !
 ! D204  D(34,26,35,81)        173.1167         estimate D2E/DX2                !
 ! D205  D(26,30,31,32)        -62.2483         estimate D2E/DX2                !
 ! D206  D(26,30,31,72)        176.1065         estimate D2E/DX2                !
 ! D207  D(26,30,31,73)         58.2553         estimate D2E/DX2                !
 ! D208  D(70,30,31,32)        175.414          estimate D2E/DX2                !
 ! D209  D(70,30,31,72)         53.7688         estimate D2E/DX2                !
 ! D210  D(70,30,31,73)        -64.0824         estimate D2E/DX2                !
 ! D211  D(71,30,31,32)         58.7828         estimate D2E/DX2                !
 ! D212  D(71,30,31,72)        -62.8623         estimate D2E/DX2                !
 ! D213  D(71,30,31,73)        179.2864         estimate D2E/DX2                !
 ! D214  D(30,31,32,33)         44.2521         estimate D2E/DX2                !
 ! D215  D(30,31,32,74)        -77.9588         estimate D2E/DX2                !
 ! D216  D(30,31,32,75)        166.7211         estimate D2E/DX2                !
 ! D217  D(72,31,32,33)        166.1269         estimate D2E/DX2                !
 ! D218  D(72,31,32,74)         43.916          estimate D2E/DX2                !
 ! D219  D(72,31,32,75)        -71.4041         estimate D2E/DX2                !
 ! D220  D(73,31,32,33)        -76.6067         estimate D2E/DX2                !
 ! D221  D(73,31,32,74)        161.1825         estimate D2E/DX2                !
 ! D222  D(73,31,32,75)         45.8623         estimate D2E/DX2                !
 ! D223  D(31,32,33,25)        -12.0074         estimate D2E/DX2                !
 ! D224  D(31,32,33,36)        166.5432         estimate D2E/DX2                !
 ! D225  D(74,32,33,25)        110.9024         estimate D2E/DX2                !
 ! D226  D(74,32,33,36)        -70.5469         estimate D2E/DX2                !
 ! D227  D(75,32,33,25)       -135.5688         estimate D2E/DX2                !
 ! D228  D(75,32,33,36)         42.9819         estimate D2E/DX2                !
 ! D229  D(25,33,36,82)       -166.3622         estimate D2E/DX2                !
 ! D230  D(25,33,36,83)        -46.603          estimate D2E/DX2                !
 ! D231  D(25,33,36,84)         74.8219         estimate D2E/DX2                !
 ! D232  D(32,33,36,82)         15.0887         estimate D2E/DX2                !
 ! D233  D(32,33,36,83)        134.8479         estimate D2E/DX2                !
 ! D234  D(32,33,36,84)       -103.7272         estimate D2E/DX2                !
 --------------------------------------------------------------------------------
 Trust Radius=3.00D-01 FncErr=1.00D-07 GrdErr=1.00D-06 EigMax=2.50D+02 EigMin=1.00D-04
 Number of steps in this run=    515 maximum allowed number of steps=    576.
 GradGradGradGradGradGradGradGradGradGradGradGradGradGradGradGradGradGrad

 Stoichiometry    C40H56
 Framework group  C1[X(C40H56)]
 Deg. of freedom   282
 Full point group                 C1      NOp   1
 Largest Abelian subgroup         C1      NOp   1
 Largest concise Abelian subgroup C1      NOp   1
                         Standard orientation:                         
 ---------------------------------------------------------------------
 Center     Atomic      Atomic             Coordinates (Angstroms)
 Number     Number       Type             X           Y           Z
 ---------------------------------------------------------------------
      1          6           0       13.193247    1.965180    0.357514
      2          6           0       14.150234    1.366297   -0.666837
      3          6           0       14.197930   -0.145886   -0.469985
      4          6           0       12.839886   -0.781119   -0.265942
      5          6           0       11.699193   -0.069117   -0.020535
      6          6           0       11.734254    1.463294    0.197940
      7          6           0       10.434640   -0.808638    0.027915
      8          6           0        9.147698   -0.368486    0.051934
      9          6           0        7.970978   -1.218813    0.064023
     10          6           0        6.738479   -0.618773    0.069992
     11          6           0        5.445845   -1.238015    0.078209
     12          6           0        4.280328   -0.525977    0.081210
     13          6           0        2.942601   -1.063627    0.086009
     14          6           0        1.885522   -0.185039    0.086900
     15          6           0        0.488362   -0.479870    0.088382
     16          6           0       -0.488364    0.479879    0.088381
     17          6           0       -1.885523    0.185049    0.086901
     18          6           0       -2.942603    1.063636    0.086010
     19          6           0       -4.280330    0.525984    0.081210
     20          6           0       -5.445847    1.238022    0.078205
     21          6           0       -6.738480    0.618778    0.069986
     22          6           0       -7.970980    1.218816    0.064016
     23          6           0       -9.147699    0.368486    0.051926
     24          6           0      -10.434641    0.808636    0.027911
     25          6           0      -11.699193    0.069112   -0.020539
     26          6           0      -11.734248   -1.463299    0.197935
     27          6           0       11.014600    1.853868    1.513234
     28          6           0       11.087577    2.209256   -0.996377
     29          6           0       12.878927   -2.293643   -0.398885
     30          6           0      -13.193238   -1.965187    0.357525
     31          6           0      -14.150237   -1.366308   -0.666817
     32          6           0      -14.197934    0.145875   -0.469969
     33          6           0      -12.839889    0.781111   -0.265939
     34          6           0      -11.014576   -1.853870    1.513220
     35          6           0      -11.087582   -2.209257   -0.996389
     36          6           0      -12.878932    2.293635   -0.398883
     37          6           0       -8.156563    2.717180    0.068498
     38          6           0       -2.769507    2.564242    0.088788
     39          6           0        2.769504   -2.564233    0.088790
     40          6           0        8.156557   -2.717177    0.068503
     41          1           0       13.552240    1.704444    1.363722
     42          1           0       13.191791    3.061587    0.302962
     43          1           0       15.153148    1.798268   -0.563053
     44          1           0       13.813091    1.597755   -1.685187
     45          1           0       14.836732   -0.392637    0.395545
     46          1           0       14.685170   -0.631298   -1.328645
     47          1           0       10.553209   -1.886254   -0.000126
     48          1           0        8.931571    0.694424    0.048253
     49          1           0        6.727188    0.472294    0.066595
     50          1           0        5.394190   -2.323329    0.080545
     51          1           0        4.354073    0.562407    0.078511
     52          1           0        2.136434    0.876729    0.085263
     53          1           0        0.172471   -1.521700    0.088524
     54          1           0       -0.172472    1.521709    0.088521
     55          1           0       -2.136435   -0.876720    0.085267
     56          1           0       -4.354074   -0.562400    0.078514
     57          1           0       -5.394193    2.323335    0.080538
     58          1           0       -6.727188   -0.472289    0.066588
     59          1           0       -8.931568   -0.694423    0.048240
     60          1           0      -10.553213    1.886252   -0.000123
     61          1           0       11.416560    1.280584    2.356412
     62          1           0       11.183965    2.918133    1.720013
     63          1           0        9.936160    1.690871    1.488587
     64          1           0       10.062275    1.884980   -1.187807
     65          1           0       11.067226    3.288779   -0.800274
     66          1           0       11.653135    2.045583   -1.919919
     67          1           0       13.913764   -2.648960   -0.350635
     68          1           0       12.324510   -2.809583    0.392139
     69          1           0       12.468777   -2.633235   -1.360075
     70          1           0      -13.191780   -3.061594    0.302976
     71          1           0      -13.552222   -1.704450    1.363737
     72          1           0      -15.153149   -1.798281   -0.563022
     73          1           0      -13.813104   -1.597768   -1.685170
     74          1           0      -14.836727    0.392627    0.395567
     75          1           0      -14.685183    0.631285   -1.328625
     76          1           0      -11.183932   -2.918136    1.719999
     77          1           0       -9.936137   -1.690867    1.488558
     78          1           0      -11.416527   -1.280589    2.356403
     79          1           0      -10.062283   -1.884978   -1.187830
     80          1           0      -11.067226   -3.288781   -0.800288
     81          1           0      -11.653150   -2.045585   -1.919926
     82          1           0      -13.913771    2.648951   -0.350639
     83          1           0      -12.324521    2.809577    0.392144
     84          1           0      -12.468777    2.633229   -1.360071
     85          1           0       -8.744087    3.036457    0.938730
     86          1           0       -7.209146    3.257946    0.093047
     87          1           0       -8.704221    3.047232   -0.823677
     88          1           0       -3.248036    3.011075    0.969534
     89          1           0       -1.721470    2.868026    0.092705
     90          1           0       -3.242385    3.013831   -0.793611
     91          1           0        3.242396   -3.013825   -0.793600
     92          1           0        3.248019   -3.011063    0.969546
     93          1           0        1.721466   -2.868016    0.092692
     94          1           0        7.209140   -3.257941    0.093061
     95          1           0        8.704208   -3.047230   -0.823677
     96          1           0        8.744089   -3.036455    0.938730
 ---------------------------------------------------------------------
 Rotational constants (GHZ):           0.3478418           0.0099525           0.0097368
 Standard basis: 6-31G(d) (6D, 7F)
 There are   712 symmetry adapted cartesian basis functions of A   symmetry.
 There are   712 symmetry adapted basis functions of A   symmetry.
   712 basis functions,  1344 primitive gaussians,   712 cartesian basis functions
   148 alpha electrons      148 beta electrons
       nuclear repulsion energy      3637.1617565307 Hartrees.
 NAtoms=   96 NActive=   96 NUniq=   96 SFac= 1.00D+00 NAtFMM=   60 NAOKFM=T Big=T
 Integral buffers will be    131072 words long.
 Raffenetti 2 integral format.
 Two-electron integral symmetry is turned on.
 ------------------------------------------------------------------------------
 Polarizable Continuum Model (PCM)
 =================================
 Model                : PCM.
 Atomic radii         : SMD-Coulomb.
 Polarization charges : Total charges.
 Charge compensation  : None.
 Solution method      : On-the-fly selection.
 Cavity type          : VdW (van der Waals Surface) (Alpha=1.000).
 Cavity algorithm     : GePol (No added spheres)
                        Default sphere list used, NSphG=   96.
                        Lebedev-Laikov grids with approx.  5.0 points / Ang**2.
                        Smoothing algorithm: York/Karplus (Gamma=1.0000).
                        Polarization charges: spherical gaussians, with
                                              point-specific exponents (IZeta= 3).
                        Self-potential: point-specific (ISelfS= 7).
                        Self-field    : sphere-specific E.n sum rule (ISelfD= 2).
 1st derivatives      : Analytical E(r).r(x)/FMM algorithm (CHGder, D1EAlg=3).
                        Cavity 1st derivative terms included.
 Solvent              : Ethanol, Eps=  24.852000 Eps(inf)=   1.852593
 ------------------------------------------------------------------------------
 ------------------------------------------------------------------------------
 Atomic radii for non-electrostatic terms: SMD-CDS.
 ------------------------------------------------------------------------------
 Nuclear repulsion after PCM non-electrostatic terms =     3637.1521877144 Hartrees.
 One-electron integrals computed using PRISM.
 NBasis=   712 RedAO= T EigKep=  9.22D-04  NBF=   712
 NBsUse=   712 1.00D-06 EigRej= -1.00D+00 NBFU=   712
 ExpMin= 1.61D-01 ExpMax= 3.05D+03 ExpMxC= 4.57D+02 IAcc=3 IRadAn=         5 AccDes= 0.00D+00
 Harris functional with IExCor=  402 and IRadAn=       5 diagonalized for initial guess.
 HarFok:  IExCor=  402 AccDes= 0.00D+00 IRadAn=         5 IDoV= 1 UseB2=F ITyADJ=14
 ICtDFT=  3500011 ScaDFX=  1.000000  1.000000  1.000000  1.000000
 FoFCou: FMM=F IPFlag=           0 FMFlag=      100000 FMFlg1=        2001
         NFxFlg=           0 DoJE=T BraDBF=F KetDBF=T FulRan=T
         wScrn=  0.000000 ICntrl=       500 IOpCl=  0 I1Cent=   200000004 NGrid=           0
         NMat0=    1 NMatS0=      1 NMatT0=    0 NMatD0=    1 NMtDS0=    0 NMtDT0=    0
 Petite list used in FoFCou.
 Requested convergence on RMS density matrix=1.00D-08 within 128 cycles.
 Requested convergence on MAX density matrix=1.00D-06.
 Requested convergence on             energy=1.00D-06.
 No special actions if energy rises.
 Inv3:  Mode=1 IEnd=   125194800.
 Iteration    1 A*A^-1 deviation from unit magnitude is 3.33D-15 for   2529.
 Iteration    1 A*A^-1 deviation from orthogonality  is 2.64D-15 for   4669    717.
 Iteration    1 A^-1*A deviation from unit magnitude is 3.11D-15 for   2529.
 Iteration    1 A^-1*A deviation from orthogonality  is 4.45D-15 for   4759   1478.
 Error on total polarization charges =  0.09677
 SCF Done:  E(RB3LYP) =  -1557.92856788     A.U. after   12 cycles
            NFock= 12  Conv=0.86D-08     -V/T= 2.0101
 SMD-CDS (non-electrostatic) energy       (kcal/mol) =      -6.00
 (included in total energy above)

 **********************************************************************

            Population analysis using the SCF Density.

 **********************************************************************

 Orbital symmetries:
       Occupied  (A) (A) (A) (A) (A) (A) (A) (A) (A) (A) (A) (A)
                 (A) (A) (A) (A) (A) (A) (A) (A) (A) (A) (A) (A)
                 (A) (A) (A) (A) (A) (A) (A) (A) (A) (A) (A) (A)
                 (A) (A) (A) (A) (A) (A) (A) (A) (A) (A) (A) (A)
                 (A) (A) (A) (A) (A) (A) (A) (A) (A) (A) (A) (A)
                 (A) (A) (A) (A) (A) (A) (A) (A) (A) (A) (A) (A)
                 (A) (A) (A) (A) (A) (A) (A) (A) (A) (A) (A) (A)
                 (A) (A) (A) (A) (A) (A) (A) (A) (A) (A) (A) (A)
                 (A) (A) (A) (A) (A) (A) (A) (A) (A) (A) (A) (A)
                 (A) (A) (A) (A) (A) (A) (A) (A) (A) (A) (A) (A)
                 (A) (A) (A) (A) (A) (A) (A) (A) (A) (A) (A) (A)
                 (A) (A) (A) (A) (A) (A) (A) (A) (A) (A) (A) (A)
                 (A) (A) (A) (A)
       Virtual   (A) (A) (A) (A) (A) (A) (A) (A) (A) (A) (A) (A)
                 (A) (A) (A) (A) (A) (A) (A) (A) (A) (A) (A) (A)
                 (A) (A) (A) (A) (A) (A) (A) (A) (A) (A) (A) (A)
                 (A) (A) (A) (A) (A) (A) (A) (A) (A) (A) (A) (A)
                 (A) (A) (A) (A) (A) (A) (A) (A) (A) (A) (A) (A)
                 (A) (A) (A) (A) (A) (A) (A) (A) (A) (A) (A) (A)
                 (A) (A) (A) (A) (A) (A) (A) (A) (A) (A) (A) (A)
                 (A) (A) (A) (A) (A) (A) (A) (A) (A) (A) (A) (A)
                 (A) (A) (A) (A) (A) (A) (A) (A) (A) (A) (A) (A)
                 (A) (A) (A) (A) (A) (A) (A) (A) (A) (A) (A) (A)
                 (A) (A) (A) (A) (A) (A) (A) (A) (A) (A) (A) (A)
                 (A) (A) (A) (A) (A) (A) (A) (A) (A) (A) (A) (A)
                 (A) (A) (A) (A) (A) (A) (A) (A) (A) (A) (A) (A)
                 (A) (A) (A) (A) (A) (A) (A) (A) (A) (A) (A) (A)
                 (A) (A) (A) (A) (A) (A) (A) (A) (A) (A) (A) (A)
                 (A) (A) (A) (A) (A) (A) (A) (A) (A) (A) (A) (A)
                 (A) (A) (A) (A) (A) (A) (A) (A) (A) (A) (A) (A)
                 (A) (A) (A) (A) (A) (A) (A) (A) (A) (A) (A) (A)
                 (A) (A) (A) (A) (A) (A) (A) (A) (A) (A) (A) (A)
                 (A) (A) (A) (A) (A) (A) (A) (A) (A) (A) (A) (A)
                 (A) (A) (A) (A) (A) (A) (A) (A) (A) (A) (A) (A)
                 (A) (A) (A) (A) (A) (A) (A) (A) (A) (A) (A) (A)
                 (A) (A) (A) (A) (A) (A) (A) (A) (A) (A) (A) (A)
                 (A) (A) (A) (A) (A) (A) (A) (A) (A) (A) (A) (A)
                 (A) (A) (A) (A) (A) (A) (A) (A) (A) (A) (A) (A)
                 (A) (A) (A) (A) (A) (A) (A) (A) (A) (A) (A) (A)
                 (A) (A) (A) (A) (A) (A) (A) (A) (A) (A) (A) (A)
                 (A) (A) (A) (A) (A) (A) (A) (A) (A) (A) (A) (A)
                 (A) (A) (A) (A) (A) (A) (A) (A) (A) (A) (A) (A)
                 (A) (A) (A) (A) (A) (A) (A) (A) (A) (A) (A) (A)
                 (A) (A) (A) (A) (A) (A) (A) (A) (A) (A) (A) (A)
                 (A) (A) (A) (A) (A) (A) (A) (A) (A) (A) (A) (A)
                 (A) (A) (A) (A) (A) (A) (A) (A) (A) (A) (A) (A)
                 (A) (A) (A) (A) (A) (A) (A) (A) (A) (A) (A) (A)
                 (A) (A) (A) (A) (A) (A) (A) (A) (A) (A) (A) (A)
                 (A) (A) (A) (A) (A) (A) (A) (A) (A) (A) (A) (A)
                 (A) (A) (A) (A) (A) (A) (A) (A) (A) (A) (A) (A)
                 (A) (A) (A) (A) (A) (A) (A) (A) (A) (A) (A) (A)
                 (A) (A) (A) (A) (A) (A) (A) (A) (A) (A) (A) (A)
                 (A) (A) (A) (A) (A) (A) (A) (A) (A) (A) (A) (A)
                 (A) (A) (A) (A) (A) (A) (A) (A) (A) (A) (A) (A)
                 (A) (A) (A) (A) (A) (A) (A) (A) (A) (A) (A) (A)
                 (A) (A) (A) (A) (A) (A) (A) (A) (A) (A) (A) (A)
                 (A) (A) (A) (A) (A) (A) (A) (A) (A) (A) (A) (A)
                 (A) (A) (A) (A) (A) (A) (A) (A) (A) (A) (A) (A)
                 (A) (A) (A) (A) (A) (A) (A) (A) (A) (A) (A) (A)
                 (A) (A) (A) (A) (A) (A) (A) (A) (A) (A) (A) (A)
 The electronic state is 1-A.
 Alpha  occ. eigenvalues --  -10.19503 -10.19503 -10.19344 -10.19344 -10.19078
 Alpha  occ. eigenvalues --  -10.19078 -10.18868 -10.18868 -10.18496 -10.18430
 Alpha  occ. eigenvalues --  -10.18270 -10.18270 -10.18233 -10.18232 -10.18115
 Alpha  occ. eigenvalues --  -10.18115 -10.18032 -10.18032 -10.17971 -10.17971
 Alpha  occ. eigenvalues --  -10.17822 -10.17822 -10.17581 -10.17581 -10.17394
 Alpha  occ. eigenvalues --  -10.17394 -10.17225 -10.17225 -10.17164 -10.17164
 Alpha  occ. eigenvalues --  -10.17004 -10.17004 -10.16734 -10.16734 -10.16541
 Alpha  occ. eigenvalues --  -10.16541 -10.16099 -10.16099 -10.16066 -10.16066
 Alpha  occ. eigenvalues --   -0.84175  -0.84173  -0.83134  -0.82616  -0.81661
 Alpha  occ. eigenvalues --   -0.81038  -0.78553  -0.77729  -0.77715  -0.77057
 Alpha  occ. eigenvalues --   -0.76364  -0.74873  -0.73769  -0.71566  -0.71255
 Alpha  occ. eigenvalues --   -0.69699  -0.68166  -0.68139  -0.67567  -0.67332
 Alpha  occ. eigenvalues --   -0.67310  -0.67269  -0.66406  -0.66362  -0.65925
 Alpha  occ. eigenvalues --   -0.62892  -0.60871  -0.59416  -0.58060  -0.56291
 Alpha  occ. eigenvalues --   -0.55391  -0.55391  -0.54269  -0.53904  -0.52810
 Alpha  occ. eigenvalues --   -0.52422  -0.51728  -0.50611  -0.49387  -0.49076
 Alpha  occ. eigenvalues --   -0.47602  -0.46831  -0.46577  -0.46188  -0.45840
 Alpha  occ. eigenvalues --   -0.45266  -0.44100  -0.43797  -0.43509  -0.43322
 Alpha  occ. eigenvalues --   -0.42346  -0.42123  -0.41567  -0.41337  -0.41297
 Alpha  occ. eigenvalues --   -0.41251  -0.41076  -0.41008  -0.40796  -0.40768
 Alpha  occ. eigenvalues --   -0.40721  -0.40653  -0.39447  -0.39428  -0.39320
 Alpha  occ. eigenvalues --   -0.39188  -0.38526  -0.38022  -0.37960  -0.37845
 Alpha  occ. eigenvalues --   -0.37683  -0.37657  -0.36929  -0.36702  -0.36310
 Alpha  occ. eigenvalues --   -0.35937  -0.35863  -0.35602  -0.35391  -0.35232
 Alpha  occ. eigenvalues --   -0.34772  -0.34241  -0.34044  -0.34032  -0.33803
 Alpha  occ. eigenvalues --   -0.33570  -0.33427  -0.33401  -0.33015  -0.32775
 Alpha  occ. eigenvalues --   -0.32673  -0.32629  -0.32405  -0.31812  -0.30981
 Alpha  occ. eigenvalues --   -0.30913  -0.29896  -0.29627  -0.29480  -0.29086
 Alpha  occ. eigenvalues --   -0.28161  -0.28140  -0.27255  -0.24934  -0.23089
 Alpha  occ. eigenvalues --   -0.20712  -0.18263  -0.15779
 Alpha virt. eigenvalues --   -0.08002  -0.04593  -0.01675   0.01400   0.03896
 Alpha virt. eigenvalues --    0.06348   0.08749   0.09594   0.09605   0.09850
 Alpha virt. eigenvalues --    0.09876   0.10246   0.10534   0.10918   0.11346
 Alpha virt. eigenvalues --    0.11540   0.11547   0.11637   0.11872   0.12468
 Alpha virt. eigenvalues --    0.12614   0.12910   0.13427   0.13434   0.13464
 Alpha virt. eigenvalues --    0.13467   0.14995   0.15056   0.15168   0.15202
 Alpha virt. eigenvalues --    0.15750   0.16381   0.16382   0.16764   0.16764
 Alpha virt. eigenvalues --    0.17178   0.17194   0.17791   0.17810   0.17880
 Alpha virt. eigenvalues --    0.18159   0.18501   0.18877   0.19043   0.19049
 Alpha virt. eigenvalues --    0.19184   0.19540   0.19577   0.19669   0.19803
 Alpha virt. eigenvalues --    0.20163   0.20362   0.20869   0.21103   0.21112
 Alpha virt. eigenvalues --    0.21380   0.21977   0.22241   0.22365   0.22548
 Alpha virt. eigenvalues --    0.22578   0.23104   0.23123   0.23300   0.23511
 Alpha virt. eigenvalues --    0.23832   0.24000   0.24024   0.24280   0.24484
 Alpha virt. eigenvalues --    0.25069   0.25478   0.26099   0.26492   0.26611
 Alpha virt. eigenvalues --    0.26702   0.27032   0.27727   0.27986   0.28757
 Alpha virt. eigenvalues --    0.28803   0.29118   0.29154   0.29567   0.29756
 Alpha virt. eigenvalues --    0.30536   0.31148   0.32238   0.33316   0.34643
 Alpha virt. eigenvalues --    0.35740   0.36299   0.37925   0.38362   0.40663
 Alpha virt. eigenvalues --    0.40959   0.41367   0.42110   0.42529   0.43699
 Alpha virt. eigenvalues --    0.44552   0.44609   0.45314   0.45456   0.46834
 Alpha virt. eigenvalues --    0.47460   0.48659   0.48829   0.50213   0.50557
 Alpha virt. eigenvalues --    0.50786   0.51181   0.51530   0.51842   0.51943
 Alpha virt. eigenvalues --    0.52073   0.52226   0.52449   0.52869   0.53099
 Alpha virt. eigenvalues --    0.53500   0.54132   0.54207   0.54522   0.55443
 Alpha virt. eigenvalues --    0.56029   0.56088   0.56467   0.56785   0.57216
 Alpha virt. eigenvalues --    0.57487   0.57802   0.58020   0.58590   0.58656
 Alpha virt. eigenvalues --    0.58964   0.59221   0.59435   0.59882   0.60032
 Alpha virt. eigenvalues --    0.60059   0.60448   0.61224   0.61579   0.61736
 Alpha virt. eigenvalues --    0.62271   0.62626   0.63120   0.63417   0.63587
 Alpha virt. eigenvalues --    0.63881   0.64163   0.64378   0.64783   0.65454
 Alpha virt. eigenvalues --    0.65939   0.66447   0.66561   0.66685   0.67604
 Alpha virt. eigenvalues --    0.67677   0.68239   0.68258   0.68862   0.69226
 Alpha virt. eigenvalues --    0.69930   0.70134   0.70167   0.70972   0.71001
 Alpha virt. eigenvalues --    0.71423   0.73165   0.73636   0.73775   0.74032
 Alpha virt. eigenvalues --    0.74480   0.74762   0.74817   0.75267   0.76015
 Alpha virt. eigenvalues --    0.76177   0.76228   0.77115   0.77182   0.77463
 Alpha virt. eigenvalues --    0.78112   0.78839   0.79050   0.79239   0.79370
 Alpha virt. eigenvalues --    0.80673   0.80942   0.81896   0.81905   0.83275
 Alpha virt. eigenvalues --    0.83276   0.83914   0.84095   0.84437   0.84563
 Alpha virt. eigenvalues --    0.84569   0.84949   0.84958   0.86554   0.86564
 Alpha virt. eigenvalues --    0.86668   0.87100   0.87112   0.87938   0.88107
 Alpha virt. eigenvalues --    0.88623   0.88728   0.89193   0.89208   0.89455
 Alpha virt. eigenvalues --    0.89568   0.89894   0.90002   0.90465   0.90479
 Alpha virt. eigenvalues --    0.91037   0.91083   0.91116   0.91242   0.91763
 Alpha virt. eigenvalues --    0.92159   0.92164   0.92661   0.92717   0.92790
 Alpha virt. eigenvalues --    0.93335   0.93335   0.93657   0.93726   0.93923
 Alpha virt. eigenvalues --    0.94957   0.94988   0.95032   0.95524   0.95583
 Alpha virt. eigenvalues --    0.96273   0.96298   0.97072   0.97201   0.97714
 Alpha virt. eigenvalues --    0.97956   0.98211   0.98683   0.99258   0.99547
 Alpha virt. eigenvalues --    0.99810   1.00367   1.00654   1.00827   1.01003
 Alpha virt. eigenvalues --    1.01036   1.01624   1.01670   1.02411   1.02841
 Alpha virt. eigenvalues --    1.03830   1.04091   1.04132   1.04181   1.06051
 Alpha virt. eigenvalues --    1.06522   1.07087   1.07659   1.08287   1.08294
 Alpha virt. eigenvalues --    1.08793   1.09601   1.10202   1.10971   1.11471
 Alpha virt. eigenvalues --    1.11683   1.13541   1.13774   1.15403   1.16346
 Alpha virt. eigenvalues --    1.16806   1.17311   1.17917   1.18824   1.20060
 Alpha virt. eigenvalues --    1.20771   1.21623   1.24544   1.25422   1.25531
 Alpha virt. eigenvalues --    1.26894   1.27020   1.29563   1.29575   1.31291
 Alpha virt. eigenvalues --    1.31383   1.31617   1.32083   1.32230   1.32328
 Alpha virt. eigenvalues --    1.32433   1.32485   1.34242   1.34288   1.34697
 Alpha virt. eigenvalues --    1.35273   1.35535   1.35939   1.36877   1.37215
 Alpha virt. eigenvalues --    1.39509   1.39927   1.40555   1.40577   1.41358
 Alpha virt. eigenvalues --    1.45385   1.46748   1.46818   1.47276   1.47478
 Alpha virt. eigenvalues --    1.48150   1.48213   1.48907   1.49978   1.51366
 Alpha virt. eigenvalues --    1.52205   1.52316   1.53005   1.54254   1.55599
 Alpha virt. eigenvalues --    1.55779   1.56081   1.58057   1.58179   1.58688
 Alpha virt. eigenvalues --    1.59180   1.62050   1.62518   1.63670   1.63698
 Alpha virt. eigenvalues --    1.63880   1.64089   1.66777   1.68127   1.68189
 Alpha virt. eigenvalues --    1.70351   1.70357   1.71737   1.71744   1.72589
 Alpha virt. eigenvalues --    1.72598   1.76064   1.76065   1.79497   1.79937
 Alpha virt. eigenvalues --    1.80831   1.80850   1.81828   1.81996   1.82995
 Alpha virt. eigenvalues --    1.83720   1.83880   1.84617   1.85255   1.85275
 Alpha virt. eigenvalues --    1.85914   1.86267   1.86427   1.86955   1.86977
 Alpha virt. eigenvalues --    1.87399   1.87989   1.88273   1.89083   1.90089
 Alpha virt. eigenvalues --    1.90192   1.90467   1.91287   1.91459   1.93431
 Alpha virt. eigenvalues --    1.93859   1.93970   1.94292   1.94891   1.95067
 Alpha virt. eigenvalues --    1.95473   1.96062   1.96195   1.97571   1.98765
 Alpha virt. eigenvalues --    1.98898   1.99375   1.99543   1.99716   2.00253
 Alpha virt. eigenvalues --    2.01015   2.01436   2.01479   2.01760   2.02715
 Alpha virt. eigenvalues --    2.03690   2.03786   2.05479   2.05653   2.05753
 Alpha virt. eigenvalues --    2.05894   2.07595   2.07624   2.08056   2.08384
 Alpha virt. eigenvalues --    2.09589   2.10289   2.12862   2.12884   2.13391
 Alpha virt. eigenvalues --    2.14421   2.14885   2.15399   2.16753   2.17016
 Alpha virt. eigenvalues --    2.18315   2.18538   2.19490   2.19537   2.21508
 Alpha virt. eigenvalues --    2.22463   2.23078   2.23510   2.23545   2.23862
 Alpha virt. eigenvalues --    2.24014   2.25132   2.25472   2.25782   2.25953
 Alpha virt. eigenvalues --    2.26448   2.26614   2.27576   2.28143   2.28413
 Alpha virt. eigenvalues --    2.29176   2.29364   2.29396   2.29593   2.30476
 Alpha virt. eigenvalues --    2.30523   2.30643   2.31501   2.31644   2.31755
 Alpha virt. eigenvalues --    2.33227   2.34252   2.34444   2.34783   2.36653
 Alpha virt. eigenvalues --    2.38108   2.38347   2.39987   2.40294   2.42449
 Alpha virt. eigenvalues --    2.42878   2.44032   2.44099   2.45081   2.45717
 Alpha virt. eigenvalues --    2.46032   2.46217   2.47645   2.47971   2.48298
 Alpha virt. eigenvalues --    2.48675   2.48871   2.49332   2.49488   2.50176
 Alpha virt. eigenvalues --    2.50394   2.50976   2.53169   2.53343   2.54045
 Alpha virt. eigenvalues --    2.54611   2.55214   2.55787   2.55972   2.56967
 Alpha virt. eigenvalues --    2.57713   2.57919   2.58070   2.59990   2.60103
 Alpha virt. eigenvalues --    2.62064   2.64493   2.67360   2.67386   2.73084
 Alpha virt. eigenvalues --    2.73087   2.73574   2.73621   2.77738   2.78046
 Alpha virt. eigenvalues --    2.80259   2.80264   2.87575   2.89634   2.91489
 Alpha virt. eigenvalues --    2.91512   2.91953   2.92445   2.94315   2.94465
 Alpha virt. eigenvalues --    2.95238   2.96693   3.02024   3.02683   3.06104
 Alpha virt. eigenvalues --    3.06703   3.11917   3.12973   3.16558   3.16980
 Alpha virt. eigenvalues --    3.18828   3.20163   3.22061   3.22589   4.09028
 Alpha virt. eigenvalues --    4.09486   4.10026   4.10911   4.12327   4.12815
 Alpha virt. eigenvalues --    4.13728   4.14542   4.16141   4.17712   4.19675
 Alpha virt. eigenvalues --    4.19873   4.20989   4.21911   4.24455   4.24984
 Alpha virt. eigenvalues --    4.26209   4.26238   4.27421   4.28880   4.28912
 Alpha virt. eigenvalues --    4.31470   4.31817   4.32754   4.33363   4.35746
 Alpha virt. eigenvalues --    4.37829   4.42272   4.43032   4.43590   4.51686
 Alpha virt. eigenvalues --    4.51921   4.56954   4.59307   4.62459   4.63981
 Alpha virt. eigenvalues --    4.65150   4.65997   4.76739   4.76741
          Condensed to atoms (all electrons):
 Mulliken charges:
               1
     1  C   -0.279957
     2  C   -0.282099
     3  C   -0.336105
     4  C    0.066429
     5  C    0.115167
     6  C    0.049744
     7  C   -0.233072
     8  C   -0.204630
     9  C    0.163744
    10  C   -0.232976
    11  C   -0.158376
    12  C   -0.207590
    13  C    0.160017
    14  C   -0.230665
    15  C   -0.154434
    16  C   -0.154434
    17  C   -0.230665
    18  C    0.160017
    19  C   -0.207590
    20  C   -0.158376
    21  C   -0.232976
    22  C    0.163744
    23  C   -0.204630
    24  C   -0.233072
    25  C    0.115167
    26  C    0.049744
    27  C   -0.477473
    28  C   -0.479189
    29  C   -0.541566
    30  C   -0.279957
    31  C   -0.282099
    32  C   -0.336105
    33  C    0.066429
    34  C   -0.477473
    35  C   -0.479189
    36  C   -0.541566
    37  C   -0.554270
    38  C   -0.551614
    39  C   -0.551614
    40  C   -0.554270
    41  H    0.134151
    42  H    0.134097
    43  H    0.136954
    44  H    0.145908
    45  H    0.157656
    46  H    0.155385
    47  H    0.150149
    48  H    0.154213
    49  H    0.142094
    50  H    0.158593
    51  H    0.145352
    52  H    0.146317
    53  H    0.156388
    54  H    0.156388
    55  H    0.146317
    56  H    0.145352
    57  H    0.158593
    58  H    0.142094
    59  H    0.154213
    60  H    0.150149
[...]
   D126       0.00076   0.00002   0.00059   0.00114   0.00174   0.00250
   D127      -3.14008  -0.00001   0.00058  -0.00093  -0.00036  -3.14044
   D128      -3.13701  -0.00005   0.00088  -0.00282  -0.00194  -3.13894
   D129       0.00346  -0.00001   0.00095  -0.00060   0.00036   0.00382
   D130       0.00387  -0.00002   0.00090  -0.00084   0.00006   0.00393
   D131      -3.13885   0.00002   0.00097   0.00139   0.00235  -3.13650
   D132      -2.10953  -0.00001  -0.00040  -0.00004  -0.00044  -2.10997
   D133      -0.00141   0.00002  -0.00007   0.00046   0.00039  -0.00102
   D134       2.10696   0.00002   0.00026   0.00054   0.00080   2.10776
   D135       1.03282  -0.00004  -0.00042  -0.00212  -0.00254   1.03027
   D136       3.14094  -0.00001  -0.00009  -0.00163  -0.00172   3.13922
   D137      -1.03388  -0.00001   0.00024  -0.00155  -0.00131  -1.03518
   D138       3.14127   0.00007   0.00069   0.00327   0.00396  -3.13795
   D139       0.00108   0.00002   0.00060   0.00103   0.00163   0.00271
   D140       0.00082   0.00002   0.00062   0.00101   0.00163   0.00245
   D141      -3.13937  -0.00002   0.00052  -0.00123  -0.00070  -3.14007
   D142      -3.13657  -0.00005   0.00079  -0.00183  -0.00104  -3.13761
   D143       0.00354   0.00000   0.00086   0.00044   0.00130   0.00484
   D144       0.00363   0.00000   0.00088   0.00040   0.00128   0.00491
   D145      -3.13945   0.00005   0.00096   0.00267   0.00363  -3.13582
   D146       3.14084   0.00007   0.00067   0.00346   0.00414  -3.13821
   D147      -0.00003   0.00005   0.00067   0.00169   0.00236   0.00233
   D148       0.00076   0.00002   0.00060   0.00116   0.00176   0.00252
   D149      -3.14011  -0.00000   0.00059  -0.00061  -0.00001  -3.14013
   D150      -3.12301  -0.00005   0.00090  -0.00287  -0.00197  -3.12498
   D151       0.00294  -0.00000   0.00091  -0.00056   0.00036   0.00330
   D152       0.01789  -0.00003   0.00090  -0.00117  -0.00027   0.01762
   D153      -3.13934   0.00002   0.00092   0.00114   0.00206  -3.13728
   D154      -2.12296  -0.00002  -0.00004   0.00068   0.00064  -2.12232
   D155      -0.01523   0.00003   0.00021   0.00142   0.00164  -0.01359
   D156       2.09237   0.00003   0.00046   0.00147   0.00193   2.09430
   D157       1.01936  -0.00005  -0.00005  -0.00110  -0.00115   1.01821
   D158       3.12709   0.00001   0.00021  -0.00036  -0.00016   3.12693
   D159      -1.04849   0.00001   0.00045  -0.00031   0.00014  -1.04835
   D160       3.11498   0.00009   0.00111   0.00441   0.00552   3.12050
   D161       0.01933  -0.00001   0.00036  -0.00061  -0.00025   0.01908
   D162      -0.01007   0.00004   0.00110   0.00197   0.00307  -0.00700
   D163      -3.10572  -0.00006   0.00036  -0.00306  -0.00270  -3.10842
   D164       0.19742  -0.00011   0.00180  -0.00635  -0.00455   0.19287
   D165      -2.94415  -0.00010   0.00155  -0.00708  -0.00553  -2.94968
   D166      -2.98963  -0.00002   0.00256  -0.00141   0.00115  -2.98848
   D167       0.15199  -0.00001   0.00230  -0.00214   0.00016   0.15215
   D168       2.95710  -0.00003  -0.00077  -0.01203  -0.01279   2.94431
   D169       0.91487  -0.00030  -0.00091  -0.01627  -0.01718   0.89769
   D170      -1.22046   0.00001  -0.00039  -0.01151  -0.01190  -1.23237
   D171      -0.18452  -0.00004  -0.00050  -0.01126  -0.01177  -0.19628
   D172      -2.22675  -0.00031  -0.00064  -0.01551  -0.01615  -2.24291
   D173       1.92110   0.00001  -0.00013  -0.01075  -0.01088   1.91023
   D174       3.04449  -0.00003   0.00094   0.00505   0.00599   3.05048
   D175      -0.07043  -0.00001   0.00055   0.00163   0.00218  -0.06825
   D176      -0.09708  -0.00002   0.00069   0.00431   0.00500  -0.09208
   D177       3.07118  -0.00001   0.00030   0.00089   0.00119   3.07237
   D178       0.78005   0.00009  -0.00030   0.00965   0.00934   0.78940
   D179       2.94067   0.00003  -0.00026   0.00774   0.00748   2.94816
   D180      -1.32697   0.00005  -0.00010   0.00888   0.00878  -1.31819
   D181       2.88143   0.00003   0.00018   0.00964   0.00981   2.89124
   D182      -1.24114  -0.00002   0.00022   0.00773   0.00795  -1.23319
   D183       0.77441  -0.00001   0.00038   0.00886   0.00925   0.78366
   D184      -1.35278   0.00003  -0.00090   0.01070   0.00980  -1.34298
   D185       0.80784  -0.00003  -0.00085   0.00879   0.00794   0.81578
   D186       2.82339  -0.00001  -0.00069   0.00993   0.00924   2.83263
   D187       2.98002   0.00016  -0.00370   0.00911   0.00541   2.98543
   D188      -1.20845   0.00009  -0.00504   0.00765   0.00260  -1.20585
   D189       0.91218   0.00009  -0.00319   0.00798   0.00479   0.91697
   D190       0.88226   0.00007  -0.00371   0.00801   0.00430   0.88656
   D191       2.97698   0.00000  -0.00506   0.00654   0.00149   2.97846
   D192      -1.18558   0.00000  -0.00321   0.00688   0.00368  -1.18191
   D193      -1.15292  -0.00004  -0.00337   0.00471   0.00134  -1.15158
   D194       0.94179  -0.00011  -0.00471   0.00324  -0.00147   0.94032
   D195       3.06242  -0.00011  -0.00286   0.00358   0.00072   3.06314
   D196       1.00116  -0.00007   0.00464   0.00451   0.00916   1.01032
   D197       3.09759  -0.00016   0.00365   0.00275   0.00640   3.10400
   D198      -1.10057  -0.00013   0.00318   0.00326   0.00645  -1.09412
   D199       3.13097  -0.00003   0.00481   0.00395   0.00876   3.13972
   D200      -1.05579  -0.00012   0.00381   0.00219   0.00601  -1.04979
   D201       1.02923  -0.00008   0.00335   0.00271   0.00605   1.03528
   D202      -1.14940   0.00028   0.00432   0.00942   0.01374  -1.13566
   D203       0.94703   0.00019   0.00332   0.00766   0.01098   0.95802
   D204       3.03205   0.00022   0.00286   0.00817   0.01103   3.04308
   D205      -1.08341  -0.00005   0.00082  -0.00114  -0.00032  -1.08373
   D206       3.07981  -0.00002   0.00167  -0.00080   0.00087   3.08068
   D207       1.02284  -0.00002   0.00164  -0.00078   0.00087   1.02371
   D208       3.06522  -0.00000   0.00099   0.00078   0.00177   3.06699
   D209       0.94526   0.00003   0.00184   0.00112   0.00296   0.94822
   D210      -1.11171   0.00003   0.00182   0.00114   0.00296  -1.10875
   D211       1.02897  -0.00002   0.00081  -0.00049   0.00033   1.02930
   D212      -1.09099   0.00001   0.00166  -0.00015   0.00151  -1.08947
   D213       3.13523   0.00001   0.00164  -0.00013   0.00151   3.13674
   D214       0.76969  -0.00002  -0.00072  -0.00561  -0.00633   0.76336
   D215      -1.36068   0.00001  -0.00001  -0.00438  -0.00439  -1.36507
   D216       2.90659   0.00003  -0.00087  -0.00368  -0.00456   2.90203
   D217       2.89432  -0.00005  -0.00139  -0.00586  -0.00724   2.88707
   D218       0.76395  -0.00002  -0.00068  -0.00462  -0.00531   0.75864
   D219      -1.25197   0.00000  -0.00155  -0.00393  -0.00547  -1.25744
   D220      -1.34234  -0.00002  -0.00143  -0.00563  -0.00706  -1.34941
   D221       2.81047  -0.00000  -0.00073  -0.00440  -0.00512   2.80535
   D222       0.79456   0.00003  -0.00159  -0.00370  -0.00529   0.78927
   D223      -0.20940   0.00004   0.00005   0.00465   0.00470  -0.20470
   D224       2.90821   0.00004   0.00040   0.00777   0.00817   2.91637
   D225       1.93606   0.00002   0.00012   0.00359   0.00371   1.93978
   D226      -1.22951   0.00002   0.00048   0.00672   0.00719  -1.22233
   D227      -2.36850   0.00001  -0.00064   0.00288   0.00224  -2.36626
   D228       0.74910   0.00002  -0.00029   0.00600   0.00572   0.75482
   D229      -2.89774  -0.00003   0.00157   0.00106   0.00263  -2.89511
   D230      -0.80527  -0.00003   0.00219   0.00109   0.00328  -0.80199
   D231       1.31411   0.00003   0.00222   0.00203   0.00425   1.31836
   D232       0.26789  -0.00002   0.00123  -0.00202  -0.00080   0.26710
   D233       2.36037  -0.00002   0.00184  -0.00199  -0.00015   2.36021
   D234      -1.80344   0.00005   0.00187  -0.00104   0.00083  -1.80262
         Item               Value     Threshold  Converged?
 Maximum Force            0.001482     0.000450     NO 
 RMS     Force            0.000192     0.000300     YES
 Maximum Displacement     0.234927     0.001800     NO 
 RMS     Displacement     0.049647     0.001200     NO 
 Predicted change in Energy=-5.529262D-05
 GradGradGradGradGradGradGradGradGradGradGradGradGradGradGradGradGradGrad

 Stoichiometry    C40H56
 Framework group  C1[X(C40H56)]
 Deg. of freedom   282
 Full point group                 C1      NOp   1
 Largest Abelian subgroup         C1      NOp   1
 Largest concise Abelian subgroup C1      NOp   1
                         Standard orientation:                         
 ---------------------------------------------------------------------
 Center     Atomic      Atomic             Coordinates (Angstroms)
 Number     Number       Type             X           Y           Z
 ---------------------------------------------------------------------
      1          6           0       13.205346    1.934442    0.494750
      2          6           0       14.181387    1.371054   -0.531381
      3          6           0       14.211663   -0.148800   -0.403381
      4          6           0       12.847758   -0.783720   -0.249254
      5          6           0       11.705846   -0.071787    0.006797
      6          6           0       11.746724    1.452915    0.279676
      7          6           0       10.437104   -0.806818    0.014856
      8          6           0        9.150939   -0.358500    0.037712
      9          6           0        7.972147   -1.209398    0.017972
     10          6           0        6.740492   -0.602101    0.025410
     11          6           0        5.448067   -1.225097    0.013403
     12          6           0        4.281565   -0.510750    0.018049
     13          6           0        2.945009   -1.056384    0.011061
     14          6           0        1.885705   -0.176758    0.014145
     15          6           0        0.488853   -0.480853    0.012245
     16          6           0       -0.488851    0.480846    0.012230
     17          6           0       -1.885704    0.176751    0.014119
     18          6           0       -2.945007    1.056378    0.011005
     19          6           0       -4.281563    0.510745    0.017988
     20          6           0       -5.448065    1.225093    0.013314
     21          6           0       -6.740491    0.602098    0.025322
     22          6           0       -7.972145    1.209397    0.017864
     23          6           0       -9.150938    0.358502    0.037615
     24          6           0      -10.437103    0.806822    0.014760
     25          6           0      -11.705842    0.071788    0.006731
     26          6           0      -11.746699   -1.452917    0.279586
     27          6           0       10.989770    1.804678    1.583924
     28          6           0       11.135570    2.245962   -0.901350
     29          6           0       12.884200   -2.289645   -0.438263
     30          6           0      -13.205298   -1.934422    0.494862
     31          6           0      -14.181453   -1.371047   -0.531168
     32          6           0      -14.211701    0.148811   -0.403199
     33          6           0      -12.847776    0.783725   -0.249212
     34          6           0      -10.989543   -1.804706    1.583710
     35          6           0      -11.135741   -2.245954   -0.901548
     36          6           0      -12.884235    2.289655   -0.438179
     37          6           0       -8.150538    2.708417   -0.008376
     38          6           0       -2.776403    2.557304    0.002377
     39          6           0        2.776406   -2.557310    0.002459
     40          6           0        8.150543   -2.708417   -0.008241
     41          1           0       13.539220    1.628110    1.497180
     42          1           0       13.212081    3.032229    0.484971
     43          1           0       15.186137    1.785079   -0.379511
     44          1           0       13.874715    1.654373   -1.546779
     45          1           0       14.830172   -0.442108    0.461816
     46          1           0       14.708074   -0.603061   -1.273484
     47          1           0       10.551157   -1.884355   -0.039380
     48          1           0        8.936162    0.705275    0.060233
     49          1           0        6.731730    0.489327    0.043397
     50          1           0        5.398335   -2.310868    0.000947
     51          1           0        4.352119    0.578449    0.029135
     52          1           0        2.132618    0.886524    0.019327
     53          1           0        0.176319   -1.524153    0.011693
     54          1           0       -0.176317    1.524146    0.011663
     55          1           0       -2.132618   -0.886530    0.019317
     56          1           0       -4.352118   -0.578454    0.029094
     57          1           0       -5.398332    2.310864    0.000839
     58          1           0       -6.731730   -0.489328    0.043331
     59          1           0       -8.936165   -0.705273    0.060162
     60          1           0      -10.551157    1.884359   -0.039469
     61          1           0       11.351619    1.196007    2.422193
     62          1           0       11.168735    2.857672    1.836866
     63          1           0        9.908200    1.667410    1.513601
     64          1           0       10.102469    1.956479   -1.113183
     65          1           0       11.137767    3.320169   -0.674738
     66          1           0       11.710764    2.097006   -1.822679
     67          1           0       13.917315   -2.649363   -0.379456
     68          1           0       12.308343   -2.836414    0.316373
     69          1           0       12.498454   -2.589500   -1.422994
     70          1           0      -13.212046   -3.032210    0.485109
     71          1           0      -13.539043   -1.628062    1.497326
     72          1           0      -15.186189   -1.785060   -0.379174
     73          1           0      -13.874899   -1.654391   -1.546594
     74          1           0      -14.830123    0.442139    0.462053
     75          1           0      -14.708193    0.603060   -1.273261
     76          1           0      -11.168454   -2.857709    1.836652
     77          1           0       -9.907985   -1.667418    1.513221
     78          1           0      -11.351271   -1.196061    2.422050
     79          1           0      -10.102667   -1.956488   -1.113537
     80          1           0      -11.137923   -3.320164   -0.674953
     81          1           0      -11.711075   -2.096972   -1.822785
     82          1           0      -13.917344    2.649372   -0.379270
     83          1           0      -12.308309    2.836403    0.316419
     84          1           0      -12.498577    2.589535   -1.422937
     85          1           0       -8.727952    3.050948    0.860295
     86          1           0       -7.199663    3.244959   -0.006846
     87          1           0       -8.708367    3.022417   -0.900523
     88          1           0       -3.254456    3.010360    0.880757
     89          1           0       -1.728645    2.864160   -0.000058
     90          1           0       -3.255467    3.000361   -0.880539
     91          1           0        3.255490   -3.000385   -0.880437
     92          1           0        3.254440   -3.010349    0.880858
     93          1           0        1.728649   -2.864167    0.000007
     94          1           0        7.199669   -3.244961   -0.006701
     95          1           0        8.708373   -3.022433   -0.900381
     96          1           0        8.727958   -3.050932    0.860437
 ---------------------------------------------------------------------
 Rotational constants (GHZ):           0.3505966           0.0099365           0.0097230
 Standard basis: 6-31G(d) (6D, 7F)
 There are   712 symmetry adapted cartesian basis functions of A   symmetry.
 There are   712 symmetry adapted basis functions of A   symmetry.
   712 basis functions,  1344 primitive gaussians,   712 cartesian basis functions
   148 alpha electrons      148 beta electrons
       nuclear repulsion energy      3635.5748687917 Hartrees.
 NAtoms=   96 NActive=   96 NUniq=   96 SFac= 1.00D+00 NAtFMM=   60 NAOKFM=T Big=T
 Integral buffers will be    131072 words long.
 Raffenetti 2 integral format.
 Two-electron integral symmetry is turned on.
 ------------------------------------------------------------------------------
 Polarizable Continuum Model (PCM)
 =================================
 Model                : PCM.
 Atomic radii         : SMD-Coulomb.
 Polarization charges : Total charges.
 Charge compensation  : None.
 Solution method      : On-the-fly selection.
 Cavity type          : VdW (van der Waals Surface) (Alpha=1.000).
 Cavity algorithm     : GePol (No added spheres)
                        Default sphere list used, NSphG=   96.
                        Lebedev-Laikov grids with approx.  5.0 points / Ang**2.
                        Smoothing algorithm: York/Karplus (Gamma=1.0000).
                        Polarization charges: spherical gaussians, with
                                              point-specific exponents (IZeta= 3).
                        Self-potential: point-specific (ISelfS= 7).
                        Self-field    : sphere-specific E.n sum rule (ISelfD= 2).
 1st derivatives      : Analytical E(r).r(x)/FMM algorithm (CHGder, D1EAlg=3).
                        Cavity 1st derivative terms included.
 Solvent              : Ethanol, Eps=  24.852000 Eps(inf)=   1.852593
 ------------------------------------------------------------------------------
 ------------------------------------------------------------------------------
 Atomic radii for non-electrostatic terms: SMD-CDS.
 ------------------------------------------------------------------------------
 Nuclear repulsion after PCM non-electrostatic terms =     3635.5652994529 Hartrees.
 One-electron integrals computed using PRISM.
 NBasis=   712 RedAO= T EigKep=  9.34D-04  NBF=   712
 NBsUse=   712 1.00D-06 EigRej= -1.00D+00 NBFU=   712
 Initial guess from the checkpoint file:  "B1.chk"
 B after Tr=     0.000000   -0.000000    0.000000
         Rot=    1.000000    0.000001    0.000000   -0.000128 Ang=   0.01 deg.
 ExpMin= 1.61D-01 ExpMax= 3.05D+03 ExpMxC= 4.57D+02 IAcc=3 IRadAn=         5 AccDes= 0.00D+00
 Harris functional with IExCor=  402 and IRadAn=       5 diagonalized for initial guess.
 HarFok:  IExCor=  402 AccDes= 0.00D+00 IRadAn=         5 IDoV= 1 UseB2=F ITyADJ=14
 ICtDFT=  3500011 ScaDFX=  1.000000  1.000000  1.000000  1.000000
 FoFCou: FMM=F IPFlag=           0 FMFlag=      100000 FMFlg1=        2001
         NFxFlg=           0 DoJE=T BraDBF=F KetDBF=T FulRan=T
         wScrn=  0.000000 ICntrl=       500 IOpCl=  0 I1Cent=   200000004 NGrid=           0
         NMat0=    1 NMatS0=      1 NMatT0=    0 NMatD0=    1 NMtDS0=    0 NMtDT0=    0
 Petite list used in FoFCou.
 Requested convergence on RMS density matrix=1.00D-08 within 128 cycles.
 Requested convergence on MAX density matrix=1.00D-06.
 Requested convergence on             energy=1.00D-06.
 No special actions if energy rises.
 Inv3:  Mode=1 IEnd=   123610683.
 Iteration    1 A*A^-1 deviation from unit magnitude is 4.00D-15 for   5884.
 Iteration    1 A*A^-1 deviation from orthogonality  is 2.76D-15 for   3358   1291.
 Iteration    1 A^-1*A deviation from unit magnitude is 4.00D-15 for   1020.
 Iteration    1 A^-1*A deviation from orthogonality  is 2.70D-15 for   2611   1020.
 Error on total polarization charges =  0.09685
 SCF Done:  E(RB3LYP) =  -1557.92868618     A.U. after    9 cycles
            NFock=  9  Conv=0.43D-08     -V/T= 2.0102
 SMD-CDS (non-electrostatic) energy       (kcal/mol) =      -6.00
 (included in total energy above)
 D1PCM: PCM CHGder 1st derivatives, ID1Alg=3 FixD1E=F DoIter=F DoCFld=F I1PDM=0.
 Calling FoFJK, ICntrl=      2127 FMM=T ISym2X=0 I1Cent= 0 IOpClX= 0 NMat=1 NMatS=1 NMatT=0.
