 Entering Gaussian System, Link 0=g16
 Initial command:
 /nfs-share/home/2100011873/Gaussian16_AVX2/g16/l1.exe "/nfs-share/home/2100011873/GaussTmp/Gau-129100.inp" -scrdir="/nfs-share/home/2100011873/GaussTmp/"
 Entering Link 1 = /nfs-share/home/2100011873/Gaussian16_AVX2/g16/l1.exe PID=    129101.
  
 Copyright (c) 1988-2021, Gaussian, Inc.  All Rights Reserved.
  
 This is part of the Gaussian(R) 16 program.  It is based on
 the Gaussian(R) 09 system (copyright 2009, Gaussian, Inc.),
 the Gaussian(R) 03 system (copyright 2003, Gaussian, Inc.),
 the Gaussian(R) 98 system (copyright 1998, Gaussian, Inc.),
 the Gaussian(R) 94 system (copyright 1995, Gaussian, Inc.),
 the Gaussian 92(TM) system (copyright 1992, Gaussian, Inc.),
 the Gaussian 90(TM) system (copyright 1990, Gaussian, Inc.),
 the Gaussian 88(TM) system (copyright 1988, Gaussian, Inc.),
 the Gaussian 86(TM) system (copyright 1986, Carnegie Mellon
 University), and the Gaussian 82(TM) system (copyright 1983,
 Carnegie Mellon University). Gaussian is a federally registered
 trademark of Gaussian, Inc.
  
 This software contains proprietary and confidential information,
 including trade secrets, belonging to Gaussian, Inc.
  
 This software is provided under written license and may be
 used, copied, transmitted, or stored only in accord with that
 written license.
  
 The following legend is applicable only to US Government
 contracts under FAR:
  
                    RESTRICTED RIGHTS LEGEND
  
 Use, reproduction and disclosure by the US Government is
 subject to restrictions as set forth in subparagraphs (a)
 and (c) of the Commercial Computer Software - Restricted
 Rights clause in FAR 52.227-19.
  
 Gaussian, Inc.
 340 Quinnipiac St., Bldg. 40, Wallingford CT 06492
  
  
 ---------------------------------------------------------------
 Warning -- This program may not be used in any manner that
 competes with the business of Gaussian, Inc. or will provide
 assistance to any competitor of Gaussian, Inc.  The licensee
 of this program is prohibited from giving any competitor of
 Gaussian, Inc. access to this program.  By using this program,
 the user acknowledges that Gaussian, Inc. is engaged in the
 business of creating and licensing software in the field of
 computational chemistry and represents and warrants to the
 licensee that it is not a competitor of Gaussian, Inc. and that
 it will not use this program in any manner prohibited above.
 ---------------------------------------------------------------
  

 Cite this work as:
 Gaussian 16, Revision C.02,
 M. J. Frisch, G. W. Trucks, H. B. Schlegel, G. E. Scuseria, 
 M. A. Robb, J. R. Cheeseman, G. Scalmani, V. Barone, 
 G. A. Petersson, H. Nakatsuji, X. Li, M. Caricato, A. V. Marenich, 
 J. Bloino, B. G. Janesko, R. Gomperts, B. Mennucci, H. P. Hratchian, 
 J. V. Ortiz, A. F. Izmaylov, J. L. Sonnenberg, D. Williams-Young, 
 F. Ding, F. Lipparini, F. Egidi, J. Goings, B. Peng, A. Petrone, 
 T. Henderson, D. Ranasinghe, V. G. Zakrzewski, J. Gao, N. Rega, 
 G. Zheng, W. Liang, M. Hada, M. Ehara, K. Toyota, R. Fukuda, 
 J. Hasegawa, M. Ishida, T. Nakajima, Y. Honda, O. Kitao, H. Nakai, 
 T. Vreven, K. Throssell, J. A. Montgomery, Jr., J. E. Peralta, 
 F. Ogliaro, M. J. Bearpark, J. J. Heyd, E. N. Brothers, K. N. Kudin, 
 V. N. Staroverov, T. A. Keith, R. Kobayashi, J. Normand, 
 K. Raghavachari, A. P. Rendell, J. C. Burant, S. S. Iyengar, 
 J. Tomasi, M. Cossi, J. M. Millam, M. Klene, C. Adamo, R. Cammi, 
 J. W. Ochterski, R. L. Martin, K. Morokuma, O. Farkas, 
 J. B. Foresman, and D. J. Fox, Gaussian, Inc., Wallingford CT, 2019.
 
 ******************************************
 Gaussian 16:  ES64L-G16RevC.02  7-Dec-2021
                 6-Nov-2023 
 ******************************************
 %chk=A1.chk
 %nprocshared=36
 Will use up to   36 processors via shared memory.
 %mem=128GB
 ---------------------------------------------
 # opt b3lyp/6-31g* scrf(smd, solvent=ethanol)
 ---------------------------------------------
 1/18=20,19=15,26=3,38=1/1,3;
 2/9=110,12=2,17=6,18=5,40=1/2;
 3/5=1,6=6,7=1,11=2,25=1,30=1,70=32201,71=1,72=4,74=-5/1,2,3;
 4//1;
 5/5=2,38=5,53=4/2;
 6/7=2,8=2,9=2,10=2,28=1/1;
 7//1,2,3,16;
 1/18=20,19=15,26=3/3(2);
 2/9=110/2;
 99//99;
 2/9=110/2;
 3/5=1,6=6,7=1,11=2,25=1,30=1,70=32205,71=1,72=4,74=-5/1,2,3;
 4/5=5,16=3,69=1/1;
 5/5=2,38=5,53=4/2;
 7//1,2,3,16;
 1/18=20,19=15,26=3/3(-5);
 2/9=110/2;
 6/7=2,8=2,9=2,10=2,19=2,28=1/1;
 99/9=1/99;
 ---
 A-1
 ---
 Symbolic Z-matrix:
 Charge =  1 Multiplicity = 1
 C                    -1.25921   0.2167   -0.03937 
 C                     0.        0.82894  -0.00012 
 C                     1.25921   0.21668   0.03925 
 N                     2.43346   0.90485   0.146 
 S                    -1.55756  -1.51215   0.05388 
 C                    -3.29767  -1.25882  -0.02728 
 C                    -3.5899    0.10887  -0.1183 
 N                    -2.43347   0.90486  -0.14611 
 S                     1.55755  -1.51217  -0.05392 
 C                     3.29766  -1.25885   0.0273 
 C                     3.5899    0.10884   0.11825 
 C                    -4.30157  -2.22442  -0.00362 
 C                    -5.62465  -1.79213  -0.06698 
 C                    -5.92564  -0.42569  -0.14901 
 C                    -4.92039   0.53827  -0.17427 
 C                     4.30156  -2.22445   0.00372 
 C                     5.62464  -1.79215   0.06707 
 C                     5.92564  -0.42571   0.14902 
 C                     4.92038   0.53826   0.17421 
 C                    -2.51035   2.37353  -0.25723 
 C                    -2.56643   3.07379   1.10152 
 C                     2.51034   2.3735    0.2573 
 C                     2.56651   3.07393  -1.10136 
 H                     0.00001   1.90904  -0.00021 
 H                    -4.06058  -3.28031   0.06397 
 H                    -6.42724  -2.52213  -0.04909 
 H                    -6.96206  -0.10651  -0.19134 
 H                    -5.17675   1.59021  -0.22813 
 H                     4.06057  -3.28035  -0.06382 
 H                     6.42723  -2.52216   0.04923 
 H                     6.96205  -0.10653   0.19134 
 H                     5.17673   1.5902    0.22802 
 H                    -1.65749   2.70849  -0.85213 
 H                    -3.39812   2.59717  -0.85222 
 H                    -3.44119   2.75206   1.67457 
 H                    -1.67384   2.86336   1.69908 
 H                    -2.63423   4.15636   0.9543 
 H                     1.65744   2.70838   0.85218 
 H                     3.39807   2.59706   0.85237 
 H                     3.44133   2.75234  -1.67437 
 H                     1.67399   2.86351  -1.69903 
 H                     2.63421   4.15649  -0.95399 
 

 GradGradGradGradGradGradGradGradGradGradGradGradGradGradGradGradGradGrad
 Berny optimization.
 Initialization pass.
                           ----------------------------
                           !    Initial Parameters    !
                           ! (Angstroms and Degrees)  !
 --------------------------                            --------------------------
 ! Name  Definition              Value          Derivative Info.                !
 --------------------------------------------------------------------------------
 ! R1    R(1,2)                  1.4007         estimate D2E/DX2                !
 ! R2    R(1,5)                  1.7569         estimate D2E/DX2                !
 ! R3    R(1,8)                  1.3652         estimate D2E/DX2                !
 ! R4    R(2,3)                  1.4007         estimate D2E/DX2                !
 ! R5    R(2,24)                 1.0801         estimate D2E/DX2                !
 ! R6    R(3,4)                  1.3652         estimate D2E/DX2                !
 ! R7    R(3,9)                  1.7569         estimate D2E/DX2                !
 ! R8    R(4,11)                 1.4042         estimate D2E/DX2                !
 ! R9    R(4,22)                 1.4749         estimate D2E/DX2                !
 ! R10   R(5,6)                  1.7603         estimate D2E/DX2                !
 ! R11   R(6,7)                  1.4015         estimate D2E/DX2                !
 ! R12   R(6,12)                 1.3931         estimate D2E/DX2                !
 ! R13   R(7,8)                  1.4042         estimate D2E/DX2                !
 ! R14   R(7,15)                 1.3992         estimate D2E/DX2                !
 ! R15   R(8,20)                 1.4749         estimate D2E/DX2                !
 ! R16   R(9,10)                 1.7603         estimate D2E/DX2                !
 ! R17   R(10,11)                1.4015         estimate D2E/DX2                !
 ! R18   R(10,16)                1.3931         estimate D2E/DX2                !
 ! R19   R(11,19)                1.3992         estimate D2E/DX2                !
 ! R20   R(12,13)                1.3933         estimate D2E/DX2                !
 ! R21   R(12,25)                1.0852         estimate D2E/DX2                !
 ! R22   R(13,14)                1.4016         estimate D2E/DX2                !
 ! R23   R(13,26)                1.0851         estimate D2E/DX2                !
 ! R24   R(14,15)                1.393          estimate D2E/DX2                !
 ! R25   R(14,27)                1.0853         estimate D2E/DX2                !
 ! R26   R(15,28)                1.0841         estimate D2E/DX2                !
 ! R27   R(16,17)                1.3933         estimate D2E/DX2                !
 ! R28   R(16,29)                1.0852         estimate D2E/DX2                !
 ! R29   R(17,18)                1.4016         estimate D2E/DX2                !
 ! R30   R(17,30)                1.0851         estimate D2E/DX2                !
 ! R31   R(18,19)                1.393          estimate D2E/DX2                !
 ! R32   R(18,31)                1.0853         estimate D2E/DX2                !
 ! R33   R(19,32)                1.0841         estimate D2E/DX2                !
 ! R34   R(20,21)                1.5296         estimate D2E/DX2                !
 ! R35   R(20,33)                1.0925         estimate D2E/DX2                !
 ! R36   R(20,34)                1.0919         estimate D2E/DX2                !
 ! R37   R(21,35)                1.0941         estimate D2E/DX2                !
 ! R38   R(21,36)                1.0946         estimate D2E/DX2                !
 ! R39   R(21,37)                1.0946         estimate D2E/DX2                !
 ! R40   R(22,23)                1.5296         estimate D2E/DX2                !
 ! R41   R(22,38)                1.0925         estimate D2E/DX2                !
 ! R42   R(22,39)                1.0919         estimate D2E/DX2                !
 ! R43   R(23,40)                1.0941         estimate D2E/DX2                !
 ! R44   R(23,41)                1.0946         estimate D2E/DX2                !
 ! R45   R(23,42)                1.0946         estimate D2E/DX2                !
 ! A1    A(2,1,5)              125.5413         estimate D2E/DX2                !
 ! A2    A(2,1,8)              123.7176         estimate D2E/DX2                !
 ! A3    A(5,1,8)              110.739          estimate D2E/DX2                !
 ! A4    A(1,2,3)              128.1628         estimate D2E/DX2                !
 ! A5    A(1,2,24)             115.9187         estimate D2E/DX2                !
 ! A6    A(3,2,24)             115.9185         estimate D2E/DX2                !
 ! A7    A(2,3,4)              123.7172         estimate D2E/DX2                !
 ! A8    A(2,3,9)              125.5415         estimate D2E/DX2                !
 ! A9    A(4,3,9)              110.7391         estimate D2E/DX2                !
 ! A10   A(3,4,11)             114.9022         estimate D2E/DX2                !
 ! A11   A(3,4,22)             123.5507         estimate D2E/DX2                !
 ! A12   A(11,4,22)            121.5374         estimate D2E/DX2                !
 ! A13   A(1,5,6)               91.364          estimate D2E/DX2                !
 ! A14   A(5,6,7)              110.4599         estimate D2E/DX2                !
 ! A15   A(5,6,12)             127.7208         estimate D2E/DX2                !
 ! A16   A(7,6,12)             121.8187         estimate D2E/DX2                !
 ! A17   A(6,7,8)              112.5044         estimate D2E/DX2                !
 ! A18   A(6,7,15)             120.0242         estimate D2E/DX2                !
 ! A19   A(8,7,15)             127.4712         estimate D2E/DX2                !
 ! A20   A(1,8,7)              114.9022         estimate D2E/DX2                !
 ! A21   A(1,8,20)             123.5502         estimate D2E/DX2                !
 ! A22   A(7,8,20)             121.5377         estimate D2E/DX2                !
 ! A23   A(3,9,10)              91.364          estimate D2E/DX2                !
 ! A24   A(9,10,11)            110.4598         estimate D2E/DX2                !
 ! A25   A(9,10,16)            127.7211         estimate D2E/DX2                !
 ! A26   A(11,10,16)           121.8185         estimate D2E/DX2                !
 ! A27   A(4,11,10)            112.5043         estimate D2E/DX2                !
 ! A28   A(4,11,19)            127.4708         estimate D2E/DX2                !
 ! A29   A(10,11,19)           120.0246         estimate D2E/DX2                !
 ! A30   A(6,12,13)            117.9342         estimate D2E/DX2                !
 ! A31   A(6,12,25)            121.0277         estimate D2E/DX2                !
 ! A32   A(13,12,25)           121.0381         estimate D2E/DX2                !
 ! A33   A(12,13,14)           120.6011         estimate D2E/DX2                !
 ! A34   A(12,13,26)           119.53           estimate D2E/DX2                !
 ! A35   A(14,13,26)           119.8686         estimate D2E/DX2                !
 ! A36   A(13,14,15)           121.3818         estimate D2E/DX2                !
 ! A37   A(13,14,27)           119.6094         estimate D2E/DX2                !
 ! A38   A(15,14,27)           119.0086         estimate D2E/DX2                !
 ! A39   A(7,15,14)            118.237          estimate D2E/DX2                !
 ! A40   A(7,15,28)            121.645          estimate D2E/DX2                !
 ! A41   A(14,15,28)           120.1162         estimate D2E/DX2                !
 ! A42   A(10,16,17)           117.9341         estimate D2E/DX2                !
 ! A43   A(10,16,29)           121.0275         estimate D2E/DX2                !
 ! A44   A(17,16,29)           121.0382         estimate D2E/DX2                !
 ! A45   A(16,17,18)           120.6012         estimate D2E/DX2                !
 ! A46   A(16,17,30)           119.5301         estimate D2E/DX2                !
 ! A47   A(18,17,30)           119.8684         estimate D2E/DX2                !
 ! A48   A(17,18,19)           121.3817         estimate D2E/DX2                !
 ! A49   A(17,18,31)           119.6095         estimate D2E/DX2                !
 ! A50   A(19,18,31)           119.0086         estimate D2E/DX2                !
 ! A51   A(11,19,18)           118.2367         estimate D2E/DX2                !
 ! A52   A(11,19,32)           121.6451         estimate D2E/DX2                !
 ! A53   A(18,19,32)           120.1165         estimate D2E/DX2                !
 ! A54   A(8,20,21)            113.0081         estimate D2E/DX2                !
 ! A55   A(8,20,33)            107.7977         estimate D2E/DX2                !
 ! A56   A(8,20,34)            106.7026         estimate D2E/DX2                !
 ! A57   A(21,20,33)           111.8379         estimate D2E/DX2                !
 ! A58   A(21,20,34)           111.1295         estimate D2E/DX2                !
 ! A59   A(33,20,34)           105.9742         estimate D2E/DX2                !
 ! A60   A(20,21,35)           111.0973         estimate D2E/DX2                !
 ! A61   A(20,21,36)           111.533          estimate D2E/DX2                !
 ! A62   A(20,21,37)           109.6065         estimate D2E/DX2                !
 ! A63   A(35,21,36)           108.0299         estimate D2E/DX2                !
 ! A64   A(35,21,37)           108.1635         estimate D2E/DX2                !
 ! A65   A(36,21,37)           108.304          estimate D2E/DX2                !
 ! A66   A(4,22,23)            113.0086         estimate D2E/DX2                !
 ! A67   A(4,22,38)            107.797          estimate D2E/DX2                !
 ! A68   A(4,22,39)            106.7022         estimate D2E/DX2                !
 ! A69   A(23,22,38)           111.8375         estimate D2E/DX2                !
 ! A70   A(23,22,39)           111.1296         estimate D2E/DX2                !
 ! A71   A(38,22,39)           105.9751         estimate D2E/DX2                !
 ! A72   A(22,23,40)           111.0977         estimate D2E/DX2                !
 ! A73   A(22,23,41)           111.5331         estimate D2E/DX2                !
 ! A74   A(22,23,42)           109.6062         estimate D2E/DX2                !
 ! A75   A(40,23,41)           108.0294         estimate D2E/DX2                !
 ! A76   A(40,23,42)           108.1636         estimate D2E/DX2                !
 ! A77   A(41,23,42)           108.3042         estimate D2E/DX2                !
 ! D1    D(5,1,2,3)              4.105          estimate D2E/DX2                !
 ! D2    D(5,1,2,24)          -175.8939         estimate D2E/DX2                !
 ! D3    D(8,1,2,3)           -176.467          estimate D2E/DX2                !
 ! D4    D(8,1,2,24)             3.5341         estimate D2E/DX2                !
 ! D5    D(2,1,5,6)            178.565          estimate D2E/DX2                !
 ! D6    D(8,1,5,6)             -0.9263         estimate D2E/DX2                !
 ! D7    D(2,1,8,7)           -177.7202         estimate D2E/DX2                !
 ! D8    D(2,1,8,20)             1.1535         estimate D2E/DX2                !
 ! D9    D(5,1,8,7)              1.7821         estimate D2E/DX2                !
 ! D10   D(5,1,8,20)          -179.3441         estimate D2E/DX2                !
 ! D11   D(1,2,3,4)           -176.4593         estimate D2E/DX2                !
 ! D12   D(1,2,3,9)              4.1162         estimate D2E/DX2                !
 ! D13   D(24,2,3,4)             3.5395         estimate D2E/DX2                !
 ! D14   D(24,2,3,9)          -175.8849         estimate D2E/DX2                !
 ! D15   D(2,3,4,11)          -177.7168         estimate D2E/DX2                !
 ! D16   D(2,3,4,22)             1.1677         estimate D2E/DX2                !
 ! D17   D(9,3,4,11)             1.7824         estimate D2E/DX2                !
 ! D18   D(9,3,4,22)          -179.3331         estimate D2E/DX2                !
 ! D19   D(2,3,9,10)           178.5624         estimate D2E/DX2                !
 ! D20   D(4,3,9,10)            -0.9257         estimate D2E/DX2                !
 ! D21   D(3,4,11,10)           -1.9158         estimate D2E/DX2                !
 ! D22   D(3,4,11,19)          178.2844         estimate D2E/DX2                !
 ! D23   D(22,4,11,10)         179.1749         estimate D2E/DX2                !
 ! D24   D(22,4,11,19)          -0.6248         estimate D2E/DX2                !
 ! D25   D(3,4,22,23)          -88.2765         estimate D2E/DX2                !
 ! D26   D(3,4,22,38)           35.8314         estimate D2E/DX2                !
 ! D27   D(3,4,22,39)          149.2911         estimate D2E/DX2                !
 ! D28   D(11,4,22,23)          90.5363         estimate D2E/DX2                !
 ! D29   D(11,4,22,38)        -145.3558         estimate D2E/DX2                !
 ! D30   D(11,4,22,39)         -31.8961         estimate D2E/DX2                !
 ! D31   D(1,5,6,7)             -0.1194         estimate D2E/DX2                !
 ! D32   D(1,5,6,12)          -179.8309         estimate D2E/DX2                !
 ! D33   D(5,6,7,8)              1.1206         estimate D2E/DX2                !
 ! D34   D(5,6,7,15)          -179.0634         estimate D2E/DX2                !
 ! D35   D(12,6,7,8)          -179.148          estimate D2E/DX2                !
 ! D36   D(12,6,7,15)            0.6681         estimate D2E/DX2                !
 ! D37   D(5,6,12,13)          179.3706         estimate D2E/DX2                !
 ! D38   D(5,6,12,25)           -0.514          estimate D2E/DX2                !
 ! D39   D(7,6,12,13)           -0.3113         estimate D2E/DX2                !
 ! D40   D(7,6,12,25)          179.8041         estimate D2E/DX2                !
 ! D41   D(6,7,8,1)             -1.9145         estimate D2E/DX2                !
 ! D42   D(6,7,8,20)           179.1868         estimate D2E/DX2                !
 ! D43   D(15,7,8,1)           178.2862         estimate D2E/DX2                !
 ! D44   D(15,7,8,20)           -0.6126         estimate D2E/DX2                !
 ! D45   D(6,7,15,14)           -0.5636         estimate D2E/DX2                !
 ! D46   D(6,7,15,28)          178.9564         estimate D2E/DX2                !
 ! D47   D(8,7,15,14)          179.2223         estimate D2E/DX2                !
 ! D48   D(8,7,15,28)           -1.2577         estimate D2E/DX2                !
 ! D49   D(1,8,20,21)          -88.2693         estimate D2E/DX2                !
 ! D50   D(1,8,20,33)           35.8392         estimate D2E/DX2                !
 ! D51   D(1,8,20,34)          149.2984         estimate D2E/DX2                !
 ! D52   D(7,8,20,21)           90.5321         estimate D2E/DX2                !
 ! D53   D(7,8,20,33)         -145.3594         estimate D2E/DX2                !
 ! D54   D(7,8,20,34)          -31.9002         estimate D2E/DX2                !
 ! D55   D(3,9,10,11)           -0.1207         estimate D2E/DX2                !
 ! D56   D(3,9,10,16)         -179.8306         estimate D2E/DX2                !
 ! D57   D(9,10,11,4)            1.1223         estimate D2E/DX2                !
 ! D58   D(9,10,11,19)        -179.0612         estimate D2E/DX2                !
 ! D59   D(16,10,11,4)        -179.1477         estimate D2E/DX2                !
 ! D60   D(16,10,11,19)          0.6688         estimate D2E/DX2                !
 ! D61   D(9,10,16,17)         179.3687         estimate D2E/DX2                !
 ! D62   D(9,10,16,29)          -0.5163         estimate D2E/DX2                !
 ! D63   D(11,10,16,17)         -0.3115         estimate D2E/DX2                !
 ! D64   D(11,10,16,29)        179.8035         estimate D2E/DX2                !
 ! D65   D(4,11,19,18)         179.2222         estimate D2E/DX2                !
 ! D66   D(4,11,19,32)          -1.2572         estimate D2E/DX2                !
 ! D67   D(10,11,19,18)         -0.5642         estimate D2E/DX2                !
 ! D68   D(10,11,19,32)        178.9565         estimate D2E/DX2                !
 ! D69   D(6,12,13,14)          -0.1275         estimate D2E/DX2                !
 ! D70   D(6,12,13,26)        -179.9217         estimate D2E/DX2                !
 ! D71   D(25,12,13,14)        179.7571         estimate D2E/DX2                !
 ! D72   D(25,12,13,26)         -0.037          estimate D2E/DX2                !
 ! D73   D(12,13,14,15)          0.2153         estimate D2E/DX2                !
 ! D74   D(12,13,14,27)       -179.6209         estimate D2E/DX2                !
 ! D75   D(26,13,14,15)       -179.9912         estimate D2E/DX2                !
 ! D76   D(26,13,14,27)          0.1725         estimate D2E/DX2                !
 ! D77   D(13,14,15,7)           0.1348         estimate D2E/DX2                !
 ! D78   D(13,14,15,28)       -179.3928         estimate D2E/DX2                !
 ! D79   D(27,14,15,7)         179.972          estimate D2E/DX2                !
 ! D80   D(27,14,15,28)          0.4443         estimate D2E/DX2                !
 ! D81   D(10,16,17,18)         -0.1278         estimate D2E/DX2                !
 ! D82   D(10,16,17,30)       -179.9211         estimate D2E/DX2                !
 ! D83   D(29,16,17,18)        179.7572         estimate D2E/DX2                !
 ! D84   D(29,16,17,30)         -0.0361         estimate D2E/DX2                !
 ! D85   D(16,17,18,19)          0.2156         estimate D2E/DX2                !
 ! D86   D(16,17,18,31)       -179.6201         estimate D2E/DX2                !
 ! D87   D(30,17,18,19)       -179.9918         estimate D2E/DX2                !
 ! D88   D(30,17,18,31)          0.1725         estimate D2E/DX2                !
 ! D89   D(17,18,19,11)          0.1349         estimate D2E/DX2                !
 ! D90   D(17,18,19,32)       -179.3934         estimate D2E/DX2                !
 ! D91   D(31,18,19,11)        179.9715         estimate D2E/DX2                !
 ! D92   D(31,18,19,32)          0.4433         estimate D2E/DX2                !
 ! D93   D(8,20,21,35)         -59.8523         estimate D2E/DX2                !
 ! D94   D(8,20,21,36)          60.7365         estimate D2E/DX2                !
 ! D95   D(8,20,21,37)        -179.3325         estimate D2E/DX2                !
 ! D96   D(33,20,21,35)        178.2829         estimate D2E/DX2                !
 ! D97   D(33,20,21,36)        -61.1282         estimate D2E/DX2                !
 ! D98   D(33,20,21,37)         58.8028         estimate D2E/DX2                !
 ! D99   D(34,20,21,35)         60.072          estimate D2E/DX2                !
 ! D100  D(34,20,21,36)       -179.3392         estimate D2E/DX2                !
 ! D101  D(34,20,21,37)        -59.4082         estimate D2E/DX2                !
 ! D102  D(4,22,23,40)         -59.8571         estimate D2E/DX2                !
 ! D103  D(4,22,23,41)          60.7315         estimate D2E/DX2                !
 ! D104  D(4,22,23,42)        -179.3374         estimate D2E/DX2                !
 ! D105  D(38,22,23,40)        178.279          estimate D2E/DX2                !
 ! D106  D(38,22,23,41)        -61.1324         estimate D2E/DX2                !
 ! D107  D(38,22,23,42)         58.7986         estimate D2E/DX2                !
 ! D108  D(39,22,23,40)         60.0672         estimate D2E/DX2                !
 ! D109  D(39,22,23,41)       -179.3443         estimate D2E/DX2                !
 ! D110  D(39,22,23,42)        -59.4132         estimate D2E/DX2                !
 --------------------------------------------------------------------------------
 Trust Radius=3.00D-01 FncErr=1.00D-07 GrdErr=1.00D-06 EigMax=2.50D+02 EigMin=1.00D-04
 Number of steps in this run=    242 maximum allowed number of steps=    252.
 GradGradGradGradGradGradGradGradGradGradGradGradGradGradGradGradGradGrad

                          Input orientation:                          
 ---------------------------------------------------------------------
 Center     Atomic      Atomic             Coordinates (Angstroms)
 Number     Number       Type             X           Y           Z
 ---------------------------------------------------------------------
      1          6           0       -1.259214    0.216698   -0.039367
      2          6           0        0.000003    0.828935   -0.000122
      3          6           0        1.259209    0.216684    0.039249
      4          7           0        2.433464    0.904848    0.145998
      5         16           0       -1.557561   -1.512152    0.053882
      6          6           0       -3.297665   -1.258824   -0.027283
      7          6           0       -3.589904    0.108866   -0.118299
      8          7           0       -2.433474    0.904863   -0.146106
      9         16           0        1.557549   -1.512171   -0.053923
     10          6           0        3.297657   -1.258850    0.027304
     11          6           0        3.589900    0.108842    0.118251
     12          6           0       -4.301571   -2.224422   -0.003624
     13          6           0       -5.624645   -1.792125   -0.066975
     14          6           0       -5.925643   -0.425687   -0.149009
     15          6           0       -4.920394    0.538274   -0.174272
     16          6           0        4.301563   -2.224450    0.003718
     17          6           0        5.624635   -1.792149    0.067066
     18          6           0        5.925635   -0.425707    0.149021
     19          6           0        4.920384    0.538258    0.174213
     20          6           0       -2.510348    2.373529   -0.257226
     21          6           0       -2.566433    3.073786    1.101522
     22          6           0        2.510339    2.373497    0.257299
     23          6           0        2.566508    3.073929   -1.101357
     24          1           0        0.000014    1.909040   -0.000214
     25          1           0       -4.060576   -3.280313    0.063971
     26          1           0       -6.427238   -2.522132   -0.049094
     27          1           0       -6.962056   -0.106514   -0.191342
     28          1           0       -5.176748    1.590213   -0.228130
     29          1           0        4.060566   -3.280345   -0.063815
     30          1           0        6.427230   -2.522156    0.049231
     31          1           0        6.962048   -0.106532    0.191339
     32          1           0        5.176733    1.590201    0.228019
     33          1           0       -1.657488    2.708489   -0.852128
     34          1           0       -3.398115    2.597174   -0.852215
     35          1           0       -3.441185    2.752064    1.674572
     36          1           0       -1.673838    2.863356    1.699082
     37          1           0       -2.634230    4.156364    0.954302
     38          1           0        1.657436    2.708379    0.852183
     39          1           0        3.398074    2.597059    0.852370
     40          1           0        3.441334    2.752344   -1.674368
     41          1           0        1.673988    2.863510   -1.699033
     42          1           0        2.634214    4.156493   -0.953990
 ---------------------------------------------------------------------
                    Distance matrix (angstroms):
                    1          2          3          4          5
     1  C    0.000000
     2  C    1.400715   0.000000
     3  C    2.519650   1.400715   0.000000
     4  N    3.760822   2.439026   1.365225   0.000000
     5  S    1.756880   2.812403   3.305039   4.666761   0.000000
     6  C    2.516465   3.903087   4.790266   6.128405   1.760320
     7  C    2.334518   3.663318   4.852870   6.081480   2.605334
     8  N    1.365229   2.439034   3.760832   4.875696   2.578600
     9  S    3.305050   2.812405   1.756880   2.578600   3.116975
    10  C    4.790278   3.903091   2.516468   2.332918   4.861894
    11  C    4.852874   3.663319   2.334522   1.404186   5.397047
    12  C    3.900805   5.275087   6.073147   7.428015   2.835529
    13  C    4.805530   6.205730   7.171753   8.500126   4.078500
    14  C    4.711713   6.058839   7.215967   8.469476   4.505742
    15  C    3.677751   4.932050   6.191648   7.369951   3.945244
    16  C    6.073162   5.275092   3.900810   3.647265   5.902476
    17  C    7.171762   6.205730   4.805531   4.178947   7.187664
    18  C    7.215970   6.058835   4.711714   3.737064   7.562251
    19  C    6.191643   4.932042   3.677748   2.513952   6.795766
    20  C    2.502942   2.958671   4.353095   5.173093   4.012868
    21  C    3.342664   3.583234   4.891523   5.533199   4.811050
    22  C    4.353082   2.958669   2.502941   1.474865   5.629161
    23  C    4.891599   3.583248   3.342733   2.505695   6.274923
    24  H    2.109789   1.080105   2.109786   2.636562   3.759458
    25  H    4.481896   5.777398   6.366295   7.726245   3.064568
    26  H    5.848911   7.248550   8.160293   9.502331   4.974376
    27  H    5.714015   7.027225   8.230846   9.455816   5.589680
    28  H    4.155628   5.237393   6.586320   7.650165   4.775219
    29  H    6.366315   5.777405   4.481901   4.495256   5.890985
    30  H    8.160306   7.248551   5.848913   5.263448   8.048417
    31  H    8.230848   7.027220   5.714015   4.640368   8.635879
    32  H    6.586305   5.237376   4.155620   2.828774   7.416578
    33  H    2.651080   2.646869   3.938371   4.580968   4.317945
    34  H    3.301861   3.924275   5.305856   6.153675   4.592952
    35  H    3.758546   4.283083   5.585350   6.345096   4.935404
    36  H    3.193574   3.134949   4.285170   4.808092   4.676032
    37  H    4.289407   4.349930   5.614024   6.075132   5.839696
    38  H    3.938297   2.646851   2.651036   2.086538   5.365293
    39  H    5.305812   3.924270   3.301832   2.071958   6.487027
    40  H    5.585506   4.283148   3.758687   2.782584   6.794242
    41  H    4.285298   3.134967   3.193643   2.795943   5.715071
    42  H    5.614027   4.349894   4.289436   3.438527   7.121820
                    6          7          8          9         10
     6  C    0.000000
     7  C    1.401522   0.000000
     8  N    2.332914   1.404178   0.000000
     9  S    4.861892   5.397053   4.666778   0.000000
    10  C    6.595548   7.023556   6.128425   1.760325   0.000000
    11  C    7.023549   7.183700   6.081494   2.605336   1.401520
    12  C    1.393114   2.442100   3.647261   5.902467   7.660389
    13  C    2.387639   2.785062   4.178945   7.187660   8.938722
    14  C    2.759566   2.396324   3.737060   7.562252   9.262533
    15  C    2.425782   1.399188   2.513951   6.795775   8.414669
    16  C    7.660396   8.230097   7.428039   2.835538   1.393114
    17  C    8.938723   9.410417   8.500143   4.078506   2.387638
    18  C    9.262528   9.534291   8.469488   4.505748   2.759567
    19  C    8.414656   8.526133   7.369955   3.945246   2.425783
    20  C    3.723806   2.512656   1.474868   5.629190   6.856242
    21  C    4.536564   3.365443   2.505690   6.274813   7.369751
    22  C    6.856213   6.517867   5.173095   4.012865   3.723803
    23  C    7.369865   6.903580   5.533279   4.811178   4.536676
    24  H    4.572831   4.017721   2.636573   3.759453   4.572826
    25  H    2.162586   3.426556   4.495252   5.890972   7.630940
    26  H    3.375004   3.870065   5.263445   8.048408   9.806901
    27  H    3.844801   3.379813   4.640365   8.635880  10.326538
    28  H    3.418816   2.173597   2.828778   7.416596   8.944157
    29  H    7.630953   8.367760   7.726273   3.064577   2.162585
    30  H    9.806908  10.358249   9.502352   4.974385   3.375004
    31  H   10.326533  10.558691   9.455825   5.589685   3.844802
    32  H    8.944135   8.897652   7.650157   4.775217   3.418816
    33  H    4.371513   3.321261   2.086549   5.365404   6.408326
    34  H    3.944531   2.601364   2.071965   6.487110   7.776621
    35  H    4.359373   3.197343   2.782535   6.794022   8.013296
    36  H    4.754947   3.815940   2.795972   5.714904   6.671071
    37  H    5.543277   4.294884   3.438526   7.121785   8.085243
    38  H    6.408212   5.935813   4.580916   4.317875   4.371459
    39  H    7.776538   7.480985   6.153652   4.592893   3.944471
    40  H    8.013518   7.671221   6.345245   4.935643   4.359588
    41  H    6.671261   6.147792   4.808235   4.676166   4.755039
    42  H    8.085273   7.471366   6.075133   5.839784   5.543378
                   11         12         13         14         15
    11  C    0.000000
    12  C    8.230084   0.000000
    13  C    9.410410   1.393348   0.000000
    14  C    9.534291   2.427796   1.401600   0.000000
    15  C    8.526141   2.836292   2.436851   1.392977   0.000000
    16  C    2.442096   8.603137   9.935870  10.385308   9.628542
    17  C    2.785055   9.935865  11.250079  11.632834  10.802164
    18  C    2.396320  10.385298  11.632829  11.855025  10.893582
    19  C    1.399185   9.628524  10.802152  10.893574   9.846946
    20  C    6.517884   4.941047   5.204586   4.417189   3.030407
    21  C    6.903488   5.683578   5.864737   5.009434   3.687493
    22  C    2.512658   8.222594   9.145246   8.897545   7.666165
    23  C    3.365489   8.743458   9.583497   9.234225   7.958815
    24  H    4.017714   5.965665   6.733489   6.370754   5.110745
    25  H    8.367742   1.085151   2.162906   3.416537   3.921435
    26  H   10.358237   2.146895   1.085074   2.157930   3.413551
    27  H   10.558693   3.405724   2.155324   1.085272   2.141127
    28  H    8.897671   3.920176   3.415669   2.151966   1.084064
    29  H    3.426553   8.428756   9.798884  10.386563   9.759697
    30  H    3.870059  10.733062  12.074524  12.531079  11.755201
    31  H    3.379809  11.462660  12.701685  12.896134  11.905540
    32  H    2.173594  10.219748  11.322408  11.290204  10.159742
    33  H    5.935898   5.660808   6.050647   5.341777   3.976918
    34  H    7.481040   4.978366   4.983973   4.002572   2.648775
    35  H    7.671044   5.321844   5.333867   4.426746   3.241473
    36  H    6.147627   5.974083   6.356205   5.684284   4.410849
    37  H    7.471359   6.664239   6.735734   5.748555   4.426150
    38  H    3.321245   7.782975   8.609767   8.266066   7.002201
    39  H    2.601337   9.124908  10.075693   9.852485   8.630730
    40  H    3.197445   9.354794  10.267808  10.008339   8.779003
    41  H    3.815945   8.029245   8.809574   8.424713   7.156640
    42  H    4.294941   9.472296  10.216732   9.742460   8.412584
                   16         17         18         19         20
    16  C    0.000000
    17  C    1.393347   0.000000
    18  C    2.427797   1.401600   0.000000
    19  C    2.836294   2.436852   1.392980   0.000000
    20  C    8.222629   9.145271   8.897560   7.666168   0.000000
    21  C    8.743332   9.583372   9.234118   7.958721   1.529608
    22  C    4.941043   5.204578   4.417184   3.030400   5.046983
    23  C    5.683698   5.864816   5.009454   3.687470   5.193995
    24  H    5.965658   6.733475   6.370738   5.110725   2.565877
    25  H    8.428751   9.798875  10.386550   9.759676   5.871312
    26  H   10.733060  12.074519  12.531070  11.755185   6.273184
    27  H   11.462670  12.701690  12.896135  11.905534   5.096338
    28  H   10.219774  11.322429  11.290221  10.159752   2.779230
    29  H    1.085152   2.162908   3.416539   3.921438   8.670675
    30  H    2.146896   1.085075   2.157928   3.413552  10.195192
    31  H    3.405724   2.155324   1.085272   2.141130   9.801949
    32  H    3.920178   3.415672   2.151971   1.084064   7.742111
    33  H    7.783100   8.609877   8.266150   7.002262   1.092464
    34  H    9.125005  10.075775   9.852543   8.630766   1.091860
    35  H    9.354549  10.267572  10.008139   8.778830   2.177519
    36  H    8.029038   8.809365   8.424525   7.156470   2.183305
    37  H    9.472255  10.216694   9.742440   8.412575   2.159085
    38  H    5.660751   6.050606   5.341765   3.976921   4.325891
    39  H    4.978298   4.983916   4.002547   2.648771   6.015864
    40  H    5.322072   5.334024   4.426794   3.241453   6.129789
    41  H    5.974182   6.356247   5.684255   4.410775   4.452814
    42  H    6.664360   6.735838   5.748621   4.426177   5.489167
                   21         22         23         24         25
    21  C    0.000000
    22  C    5.193913   0.000000
    23  C    5.585674   1.529610   0.000000
    24  H    3.026071   2.565885   3.025950   0.000000
    25  H    6.609353   8.670632   9.254870   6.589529   0.000000
    26  H    6.895218  10.195163  10.644746   7.806872   2.487712
    27  H    5.577392   9.801939  10.086470   7.250476   4.307757
    28  H    3.283703   7.742124   7.932336   5.191576   5.005316
    29  H    9.254734   5.871307   6.609501   6.589525   8.122147
    30  H   10.644616   6.273177   6.895302   7.806859  10.515184
    31  H   10.086367   5.096333   5.577380   7.250458  11.471153
    32  H    7.932254   2.779221   3.283590   5.191548  10.443979
    33  H    2.185491   4.325948   4.247094   2.027853   6.517654
    34  H    2.176222   6.015886   5.988831   3.570254   5.985241
    35  H    1.094113   6.129650   6.625840   3.918858   6.274333
    36  H    1.094570   4.452644   5.085994   2.569067   6.790786
    37  H    1.094644   5.489173   5.696058   3.591769   7.624390
    38  H    4.246971   1.092463   2.185488   2.027948   8.317534
    39  H    5.988713   1.091862   2.176225   3.570306   9.528722
    40  H    6.625870   2.177525   1.094111   3.918754   9.782302
    41  H    5.086108   2.183307   1.094571   2.568888   8.587198
    42  H    5.695973   2.159083   1.094644   3.591621  10.057959
                   26         27         28         29         30
    26  H    0.000000
    27  H    2.478200   0.000000
    28  H    4.301995   2.463242   0.000000
    29  H   10.515186  11.471167  10.444008   0.000000
    30  H   12.854844  13.607578  12.314252   2.487716   0.000000
    31  H   13.607568  13.929362  12.263982   4.307759   2.478198
    32  H   12.314228  12.263968  10.363525   5.005319   4.301998
    33  H    7.124239   6.041467   3.745011   8.317675   9.671337
    34  H    6.002323   4.521986   2.137051   9.528837  11.115644
    35  H    6.301165   4.904043   2.825306   9.782035  11.306845
    36  H    7.392862   6.352880   4.195881   8.586982   9.866765
    37  H    7.745710   6.181805   3.801010  10.057907  11.293000
    38  H    9.671220   9.127333   7.008812   6.517584   7.124196
    39  H   11.115553  10.757831   8.701080   5.985162   6.002265
    40  H   11.307092  10.890499   8.815526   6.274605   6.301327
    41  H    9.866980   9.256102   7.121617   6.790924   7.392911
    42  H   11.293041  10.528213   8.253714   7.624530   7.745823
                   31         32         33         34         35
    31  H    0.000000
    32  H    2.463249   0.000000
    33  H    9.127407   7.008842   0.000000
    34  H   10.757881   8.701087   1.744183   0.000000
    35  H   10.890308   8.815382   3.093168   2.531896   0.000000
    36  H    9.255920   7.121466   2.555958   3.090809   1.771017
    37  H   10.528198   8.253716   2.512679   2.505613   1.772575
    38  H    6.041469   3.745044   3.727385   5.336285   5.164704
    39  H    4.521977   2.137102   5.336332   7.006696   6.890247
    40  H    4.904025   2.825113   5.164880   6.890434   7.654049
    41  H    6.352813   4.195720   3.440932   5.149200   6.128509
    42  H    6.181853   3.800974   4.530541   6.231439   6.766996
                   36         37         38         39         40
    36  H    0.000000
    37  H    1.774520   0.000000
    38  H    3.440733   4.530506   0.000000
    39  H    5.148993   6.231413   1.744194   0.000000
    40  H    6.128415   6.767101   3.093167   2.531875   0.000000
    41  H    4.770233   5.222298   2.555982   3.090813   1.771010
    42  H    5.222098   5.603399   2.512646   2.505644   1.772575
                   41         42
    41  H    0.000000
    42  H    1.774522   0.000000
 Stoichiometry    C19H19N2S2(1+)
 Framework group  C1[X(C19H19N2S2)]
 Deg. of freedom   120
 Full point group                 C1      NOp   1
 Largest Abelian subgroup         C1      NOp   1
 Largest concise Abelian subgroup C1      NOp   1
                         Standard orientation:                         
 ---------------------------------------------------------------------
 Center     Atomic      Atomic             Coordinates (Angstroms)
 Number     Number       Type             X           Y           Z
 ---------------------------------------------------------------------
      1          6           0       -1.259214    0.216698   -0.039367
      2          6           0        0.000003    0.828935   -0.000122
      3          6           0        1.259209    0.216684    0.039249
      4          7           0        2.433464    0.904848    0.145998
      5         16           0       -1.557561   -1.512152    0.053882
      6          6           0       -3.297665   -1.258824   -0.027283
      7          6           0       -3.589904    0.108866   -0.118299
      8          7           0       -2.433474    0.904863   -0.146106
      9         16           0        1.557549   -1.512171   -0.053923
     10          6           0        3.297657   -1.258850    0.027304
     11          6           0        3.589900    0.108842    0.118251
     12          6           0       -4.301571   -2.224422   -0.003624
     13          6           0       -5.624645   -1.792125   -0.066975
     14          6           0       -5.925643   -0.425687   -0.149009
     15          6           0       -4.920394    0.538274   -0.174272
     16          6           0        4.301563   -2.224450    0.003718
     17          6           0        5.624635   -1.792149    0.067066
     18          6           0        5.925635   -0.425707    0.149021
     19          6           0        4.920384    0.538258    0.174213
     20          6           0       -2.510348    2.373529   -0.257226
     21          6           0       -2.566433    3.073786    1.101522
     22          6           0        2.510339    2.373497    0.257299
     23          6           0        2.566508    3.073929   -1.101357
     24          1           0        0.000014    1.909040   -0.000214
     25          1           0       -4.060576   -3.280313    0.063971
     26          1           0       -6.427238   -2.522132   -0.049094
     27          1           0       -6.962056   -0.106514   -0.191342
     28          1           0       -5.176748    1.590213   -0.228130
     29          1           0        4.060566   -3.280345   -0.063815
     30          1           0        6.427230   -2.522156    0.049231
     31          1           0        6.962048   -0.106532    0.191339
     32          1           0        5.176733    1.590201    0.228019
     33          1           0       -1.657488    2.708489   -0.852128
     34          1           0       -3.398115    2.597174   -0.852215
     35          1           0       -3.441185    2.752064    1.674572
     36          1           0       -1.673838    2.863356    1.699082
     37          1           0       -2.634230    4.156364    0.954302
     38          1           0        1.657436    2.708379    0.852183
     39          1           0        3.398074    2.597059    0.852370
     40          1           0        3.441334    2.752344   -1.674368
     41          1           0        1.673988    2.863510   -1.699033
     42          1           0        2.634214    4.156493   -0.953990
 ---------------------------------------------------------------------
 Rotational constants (GHZ):           0.5197631           0.1187459           0.0985340
 Standard basis: 6-31G(d) (6D, 7F)
 There are   391 symmetry adapted cartesian basis functions of A   symmetry.
 There are   391 symmetry adapted basis functions of A   symmetry.
   391 basis functions,   768 primitive gaussians,   391 cartesian basis functions
    89 alpha electrons       89 beta electrons
       nuclear repulsion energy      2127.8579715027 Hartrees.
 NAtoms=   42 NActive=   42 NUniq=   42 SFac= 1.00D+00 NAtFMM=   60 NAOKFM=F Big=F
 Integral buffers will be    131072 words long.
 Raffenetti 2 integral format.
 Two-electron integral symmetry is turned on.
 ------------------------------------------------------------------------------
 Polarizable Continuum Model (PCM)
 =================================
 Model                : PCM.
 Atomic radii         : SMD-Coulomb.
 Polarization charges : Total charges.
 Charge compensation  : None.
 Solution method      : On-the-fly selection.
 Cavity type          : VdW (van der Waals Surface) (Alpha=1.000).
 Cavity algorithm     : GePol (No added spheres)
                        Default sphere list used, NSphG=   42.
                        Lebedev-Laikov grids with approx.  5.0 points / Ang**2.
                        Smoothing algorithm: York/Karplus (Gamma=1.0000).
                        Polarization charges: spherical gaussians, with
                                              point-specific exponents (IZeta= 3).
                        Self-potential: point-specific (ISelfS= 7).
                        Self-field    : sphere-specific E.n sum rule (ISelfD= 2).
 1st derivatives      : Analytical E(r).r(x)/FMM algorithm (CHGder, D1EAlg=3).
                        Cavity 1st derivative terms included.
 Solvent              : Ethanol, Eps=  24.852000 Eps(inf)=   1.852593
 ------------------------------------------------------------------------------
 ------------------------------------------------------------------------------
 Atomic radii for non-electrostatic terms: SMD-CDS.
 ------------------------------------------------------------------------------
 Nuclear repulsion after PCM non-electrostatic terms =     2127.8526197948 Hartrees.
 One-electron integrals computed using PRISM.
 NBasis=   391 RedAO= T EigKep=  4.47D-04  NBF=   391
 NBsUse=   391 1.00D-06 EigRej= -1.00D+00 NBFU=   391
 ExpMin= 1.17D-01 ExpMax= 2.19D+04 ExpMxC= 3.30D+03 IAcc=3 IRadAn=         5 AccDes= 0.00D+00
 Harris functional with IExCor=  402 and IRadAn=       5 diagonalized for initial guess.
 HarFok:  IExCor=  402 AccDes= 0.00D+00 IRadAn=         5 IDoV= 1 UseB2=F ITyADJ=14
 ICtDFT=  3500011 ScaDFX=  1.000000  1.000000  1.000000  1.000000
 FoFCou: FMM=F IPFlag=           0 FMFlag=      100000 FMFlg1=           0
         NFxFlg=           0 DoJE=T BraDBF=F KetDBF=T FulRan=T
         wScrn=  0.000000 ICntrl=       500 IOpCl=  0 I1Cent=   200000004 NGrid=           0
         NMat0=    1 NMatS0=      1 NMatT0=    0 NMatD0=    1 NMtDS0=    0 NMtDT0=    0
 Petite list used in FoFCou.
 Requested convergence on RMS density matrix=1.00D-08 within 128 cycles.
 Requested convergence on MAX density matrix=1.00D-06.
 Requested convergence on             energy=1.00D-06.
 No special actions if energy rises.
 Inv3:  Mode=1 IEnd=    30470907.
 Iteration    1 A*A^-1 deviation from unit magnitude is 3.77D-15 for   3042.
 Iteration    1 A*A^-1 deviation from orthogonality  is 2.11D-15 for    529    503.
 Iteration    1 A^-1*A deviation from unit magnitude is 3.33D-15 for   3042.
 Iteration    1 A^-1*A deviation from orthogonality  is 3.64D-09 for   2629   2551.
 Iteration    2 A*A^-1 deviation from unit magnitude is 2.66D-15 for    154.
 Iteration    2 A*A^-1 deviation from orthogonality  is 3.44D-15 for   2551    549.
 Iteration    2 A^-1*A deviation from unit magnitude is 1.55D-15 for     96.
 Iteration    2 A^-1*A deviation from orthogonality  is 1.11D-15 for   2215    592.
 Error on total polarization charges =  0.04657
 SCF Done:  E(RB3LYP) =  -1641.24600074     A.U. after   13 cycles
            NFock= 13  Conv=0.56D-08     -V/T= 2.0067
 SMD-CDS (non-electrostatic) energy       (kcal/mol) =      -3.36
 (included in total energy above)

 **********************************************************************

            Population analysis using the SCF Density.

 **********************************************************************

 Orbital symmetries:
       Occupied  (A) (A) (A) (A) (A) (A) (A) (A) (A) (A) (A) (A)
                 (A) (A) (A) (A) (A) (A) (A) (A) (A) (A) (A) (A)
                 (A) (A) (A) (A) (A) (A) (A) (A) (A) (A) (A) (A)
                 (A) (A) (A) (A) (A) (A) (A) (A) (A) (A) (A) (A)
                 (A) (A) (A) (A) (A) (A) (A) (A) (A) (A) (A) (A)
                 (A) (A) (A) (A) (A) (A) (A) (A) (A) (A) (A) (A)
                 (A) (A) (A) (A) (A) (A) (A) (A) (A) (A) (A) (A)
                 (A) (A) (A) (A) (A)
       Virtual   (A) (A) (A) (A) (A) (A) (A) (A) (A) (A) (A) (A)
                 (A) (A) (A) (A) (A) (A) (A) (A) (A) (A) (A) (A)
                 (A) (A) (A) (A) (A) (A) (A) (A) (A) (A) (A) (A)
                 (A) (A) (A) (A) (A) (A) (A) (A) (A) (A) (A) (A)
                 (A) (A) (A) (A) (A) (A) (A) (A) (A) (A) (A) (A)
                 (A) (A) (A) (A) (A) (A) (A) (A) (A) (A) (A) (A)
                 (A) (A) (A) (A) (A) (A) (A) (A) (A) (A) (A) (A)
                 (A) (A) (A) (A) (A) (A) (A) (A) (A) (A) (A) (A)
                 (A) (A) (A) (A) (A) (A) (A) (A) (A) (A) (A) (A)
                 (A) (A) (A) (A) (A) (A) (A) (A) (A) (A) (A) (A)
                 (A) (A) (A) (A) (A) (A) (A) (A) (A) (A) (A) (A)
                 (A) (A) (A) (A) (A) (A) (A) (A) (A) (A) (A) (A)
                 (A) (A) (A) (A) (A) (A) (A) (A) (A) (A) (A) (A)
                 (A) (A) (A) (A) (A) (A) (A) (A) (A) (A) (A) (A)
                 (A) (A) (A) (A) (A) (A) (A) (A) (A) (A) (A) (A)
                 (A) (A) (A) (A) (A) (A) (A) (A) (A) (A) (A) (A)
                 (A) (A) (A) (A) (A) (A) (A) (A) (A) (A) (A) (A)
                 (A) (A) (A) (A) (A) (A) (A) (A) (A) (A) (A) (A)
                 (A) (A) (A) (A) (A) (A) (A) (A) (A) (A) (A) (A)
                 (A) (A) (A) (A) (A) (A) (A) (A) (A) (A) (A) (A)
                 (A) (A) (A) (A) (A) (A) (A) (A) (A) (A) (A) (A)
                 (A) (A) (A) (A) (A) (A) (A) (A) (A) (A) (A) (A)
                 (A) (A) (A) (A) (A) (A) (A) (A) (A) (A) (A) (A)
                 (A) (A) (A) (A) (A) (A) (A) (A) (A) (A) (A) (A)
                 (A) (A) (A) (A) (A) (A) (A) (A) (A) (A) (A) (A)
                 (A) (A)
 The electronic state is 1-A.
 Alpha  occ. eigenvalues --  -88.93940 -88.93940 -14.42396 -14.42396 -10.30694
 Alpha  occ. eigenvalues --  -10.30694 -10.25818 -10.25818 -10.24525 -10.24524
 Alpha  occ. eigenvalues --  -10.23843 -10.23843 -10.21751 -10.21212 -10.21212
 Alpha  occ. eigenvalues --  -10.20888 -10.20888 -10.20353 -10.20353 -10.20149
 Alpha  occ. eigenvalues --  -10.20149 -10.18380 -10.18380  -8.00065  -8.00063
 Alpha  occ. eigenvalues --   -5.96517  -5.96517  -5.96141  -5.96139  -5.95658
 Alpha  occ. eigenvalues --   -5.95657  -1.02466  -1.02126  -0.88035  -0.87907
 Alpha  occ. eigenvalues --   -0.86166  -0.84026  -0.80765  -0.77872  -0.77500
 Alpha  occ. eigenvalues --   -0.76489  -0.75230  -0.74512  -0.72098  -0.66389
 Alpha  occ. eigenvalues --   -0.66172  -0.65867  -0.63371  -0.61487  -0.61475
 Alpha  occ. eigenvalues --   -0.59285  -0.56980  -0.53712  -0.53075  -0.52913
 Alpha  occ. eigenvalues --   -0.51024  -0.50241  -0.48149  -0.47987  -0.47220
 Alpha  occ. eigenvalues --   -0.46450  -0.46190  -0.45837  -0.45732  -0.43958
 Alpha  occ. eigenvalues --   -0.43645  -0.43601  -0.42318  -0.40761  -0.40501
 Alpha  occ. eigenvalues --   -0.39803  -0.39435  -0.38503  -0.37986  -0.37688
 Alpha  occ. eigenvalues --   -0.37476  -0.37117  -0.36337  -0.36056  -0.35960
 Alpha  occ. eigenvalues --   -0.35310  -0.34901  -0.32493  -0.31930  -0.29878
 Alpha  occ. eigenvalues --   -0.26303  -0.25605  -0.25152  -0.20949
 Alpha virt. eigenvalues --   -0.07939  -0.03247  -0.02190  -0.01776  -0.00969
 Alpha virt. eigenvalues --   -0.00059   0.01632   0.04260   0.05331   0.07809
 Alpha virt. eigenvalues --    0.08292   0.10898   0.11021   0.12255   0.12683
 Alpha virt. eigenvalues --    0.12849   0.12899   0.14201   0.14335   0.14521
 Alpha virt. eigenvalues --    0.15203   0.15416   0.16060   0.16079   0.16520
 Alpha virt. eigenvalues --    0.17550   0.17799   0.18237   0.18382   0.19077
 Alpha virt. eigenvalues --    0.19117   0.20007   0.20109   0.20690   0.21625
 Alpha virt. eigenvalues --    0.22480   0.23012   0.24473   0.24746   0.26170
 Alpha virt. eigenvalues --    0.26799   0.27760   0.28713   0.30738   0.30850
 Alpha virt. eigenvalues --    0.31168   0.32205   0.33703   0.34325   0.34600
 Alpha virt. eigenvalues --    0.36811   0.36947   0.37995   0.38435   0.41030
 Alpha virt. eigenvalues --    0.42697   0.45453   0.48010   0.48269   0.48559
 Alpha virt. eigenvalues --    0.49196   0.49436   0.49775   0.50842   0.52313
 Alpha virt. eigenvalues --    0.52572   0.52961   0.53267   0.54277   0.55050
 Alpha virt. eigenvalues --    0.55519   0.55695   0.56784   0.56839   0.57110
 Alpha virt. eigenvalues --    0.57281   0.58086   0.58194   0.58549   0.59378
 Alpha virt. eigenvalues --    0.59874   0.59902   0.60142   0.60271   0.60462
 Alpha virt. eigenvalues --    0.61163   0.61385   0.62239   0.63475   0.63922
 Alpha virt. eigenvalues --    0.64413   0.65712   0.66212   0.67865   0.68559
 Alpha virt. eigenvalues --    0.69851   0.71233   0.72129   0.72935   0.73247
 Alpha virt. eigenvalues --    0.74450   0.77394   0.78837   0.79926   0.81152
 Alpha virt. eigenvalues --    0.81267   0.81817   0.82741   0.82761   0.83413
 Alpha virt. eigenvalues --    0.83931   0.84404   0.85507   0.85607   0.86639
 Alpha virt. eigenvalues --    0.86715   0.87770   0.87774   0.88559   0.89097
 Alpha virt. eigenvalues --    0.89307   0.89940   0.90450   0.91041   0.92445
 Alpha virt. eigenvalues --    0.93165   0.94127   0.94281   0.95212   0.96025
 Alpha virt. eigenvalues --    0.96223   0.96488   0.97386   0.98184   0.98890
 Alpha virt. eigenvalues --    0.98981   0.99719   1.00075   1.01145   1.01326
 Alpha virt. eigenvalues --    1.02236   1.02424   1.04218   1.04411   1.05658
 Alpha virt. eigenvalues --    1.07493   1.09424   1.09655   1.11422   1.12925
 Alpha virt. eigenvalues --    1.14539   1.15167   1.19273   1.19442   1.22116
 Alpha virt. eigenvalues --    1.22286   1.23025   1.23035   1.26503   1.26509
 Alpha virt. eigenvalues --    1.28604   1.29877   1.32730   1.34162   1.35728
 Alpha virt. eigenvalues --    1.36851   1.39892   1.40604   1.41392   1.41604
 Alpha virt. eigenvalues --    1.41884   1.42166   1.42612   1.46177   1.46306
 Alpha virt. eigenvalues --    1.48119   1.48172   1.48608   1.50649   1.53900
 Alpha virt. eigenvalues --    1.54725   1.55316   1.55340   1.59334   1.60823
 Alpha virt. eigenvalues --    1.62892   1.65178   1.68409   1.70180   1.72459
 Alpha virt. eigenvalues --    1.73543   1.78311   1.78408   1.78491   1.81685
 Alpha virt. eigenvalues --    1.81871   1.83151   1.83964   1.85636   1.86002
 Alpha virt. eigenvalues --    1.87682   1.88723   1.89598   1.90233   1.92727
 Alpha virt. eigenvalues --    1.93223   1.93509   1.93870   1.94597   1.95606
 Alpha virt. eigenvalues --    1.95879   1.96361   1.98706   2.01000   2.02175
 Alpha virt. eigenvalues --    2.03851   2.07466   2.08357   2.08897   2.11220
 Alpha virt. eigenvalues --    2.12106   2.12979   2.13075   2.13252   2.13621
 Alpha virt. eigenvalues --    2.14151   2.18188   2.18718   2.18810   2.21444
 Alpha virt. eigenvalues --    2.21762   2.22187   2.24757   2.25531   2.27683
 Alpha virt. eigenvalues --    2.28270   2.28477   2.29209   2.30014   2.31423
 Alpha virt. eigenvalues --    2.31742   2.33901   2.34636   2.37198   2.38273
 Alpha virt. eigenvalues --    2.43533   2.46234   2.48017   2.48746   2.48780
 Alpha virt. eigenvalues --    2.49897   2.54428   2.55024   2.55177   2.59548
 Alpha virt. eigenvalues --    2.60529   2.60692   2.62851   2.64431   2.66795
 Alpha virt. eigenvalues --    2.67247   2.67425   2.69622   2.71149   2.71922
 Alpha virt. eigenvalues --    2.72870   2.74986   2.75147   2.85246   2.87151
 Alpha virt. eigenvalues --    2.87723   2.90707   2.98193   3.03665   3.04820
 Alpha virt. eigenvalues --    3.18981   3.21871   3.38889   3.39696   3.90245
 Alpha virt. eigenvalues --    3.96155   4.02981   4.07062   4.07431   4.09370
 Alpha virt. eigenvalues --    4.10105   4.11418   4.11966   4.15258   4.15958
 Alpha virt. eigenvalues --    4.25159   4.27760   4.30704   4.32361   4.36429
 Alpha virt. eigenvalues --    4.36992   4.42795   4.47618   4.49025   4.53487
 Alpha virt. eigenvalues --    4.70472   4.70981
          Condensed to atoms (all electrons):
               1          2          3          4          5          6
     1  C    4.879625   0.456380   0.001751   0.002450   0.315574  -0.017164
     2  C    0.456380   5.187744   0.456379  -0.033769  -0.072182   0.003511
     3  C    0.001751   0.456379   4.879618   0.350459  -0.004432   0.000107
     4  N    0.002450  -0.033769   0.350459   6.972388   0.000271   0.000000
     5  S    0.315574  -0.072182  -0.004432   0.000271  15.350775   0.246442
     6  C   -0.017164   0.003511   0.000107   0.000000   0.246442   5.185728
     7  C   -0.052944   0.005311  -0.000035   0.000000  -0.061959   0.491028
     8  N    0.350454  -0.033770   0.002450  -0.000041  -0.066826  -0.058074
     9  S   -0.004432  -0.072181   0.315573  -0.066827   0.016223   0.000169
    10  C    0.000107   0.003511  -0.017164  -0.058073   0.000169  -0.000001
    11  C   -0.000035   0.005311  -0.052942   0.272060  -0.000009   0.000000
    12  C    0.001178  -0.000117   0.000001  -0.000000  -0.052704   0.502846
    13  C   -0.000011   0.000003  -0.000000  -0.000000   0.003363  -0.034477
    14  C    0.000004   0.000001  -0.000000   0.000000   0.000384  -0.040663
    15  C    0.006020  -0.000257   0.000001  -0.000000   0.006998  -0.071341
    16  C    0.000001  -0.000117   0.001178   0.007297   0.000010   0.000000
    17  C   -0.000000   0.000003  -0.000011   0.000125  -0.000000  -0.000000
    18  C   -0.000000   0.000001   0.000004   0.004731   0.000000  -0.000000
    19  C    0.000001  -0.000257   0.006020  -0.067138  -0.000001  -0.000000
    20  C   -0.048744   0.000370   0.000561   0.000002   0.004299   0.005949
    21  C   -0.000197  -0.001611  -0.000006   0.000003  -0.000126  -0.000345
    22  C    0.000560   0.000368  -0.048742   0.275067  -0.000001   0.000000
    23  C   -0.000006  -0.001610  -0.000197  -0.052612  -0.000001  -0.000000
    24  H   -0.030723   0.354954  -0.030720  -0.009621   0.003068  -0.000000
    25  H    0.000012   0.000000   0.000000   0.000000  -0.001859  -0.041956
    26  H   -0.000000  -0.000000   0.000000   0.000000  -0.000128   0.004679
    27  H    0.000002  -0.000000   0.000000  -0.000000   0.000018   0.000784
    28  H   -0.000131   0.000003  -0.000000  -0.000000  -0.000262   0.005371
    29  H    0.000000   0.000000   0.000012  -0.000105   0.000003   0.000000
    30  H    0.000000  -0.000000  -0.000000   0.000002   0.000000   0.000000
    31  H    0.000000  -0.000000   0.000002  -0.000090  -0.000000  -0.000000
    32  H   -0.000000   0.000003  -0.000131  -0.007889   0.000000   0.000000
    33  H   -0.008977   0.005669   0.000587  -0.000018  -0.000065  -0.000230
    34  H    0.004930   0.000065  -0.000014  -0.000000  -0.000210   0.000109
    35  H   -0.000125   0.000035   0.000001  -0.000000   0.000009  -0.000099
    36  H    0.002767   0.001260  -0.000117  -0.000004  -0.000090   0.000003
    37  H   -0.000081  -0.000021   0.000001  -0.000000   0.000003   0.000006
    38  H    0.000587   0.005671  -0.008975  -0.032712  -0.000013   0.000000
    39  H   -0.000014   0.000065   0.004930  -0.032869   0.000000   0.000000
    40  H    0.000001   0.000035  -0.000125  -0.003901  -0.000000   0.000000
    41  H   -0.000116   0.001259   0.002766  -0.004276  -0.000001   0.000000
    42  H    0.000001  -0.000021  -0.000081   0.003744   0.000000   0.000000
               7          8          9         10         11         12
     1  C   -0.052944   0.350454  -0.004432   0.000107  -0.000035   0.001178
     2  C    0.005311  -0.033770  -0.072181   0.003511   0.005311  -0.000117
     3  C   -0.000035   0.002450   0.315573  -0.017164  -0.052942   0.000001
     4  N    0.000000  -0.000041  -0.066827  -0.058073   0.272060  -0.000000
     5  S   -0.061959  -0.066826   0.016223   0.000169  -0.000009  -0.052704
     6  C    0.491028  -0.058074   0.000169  -0.000001   0.000000   0.502846
     7  C    4.582842   0.272060  -0.000009   0.000000  -0.000000  -0.008122
     8  N    0.272060   6.972396   0.000271   0.000000   0.000000   0.007297
     9  S   -0.000009   0.000271  15.350775   0.246442  -0.061959   0.000010
    10  C    0.000000   0.000000   0.246442   5.185727   0.491028   0.000000
    11  C   -0.000000   0.000000  -0.061959   0.491028   4.582839  -0.000000
    12  C   -0.008122   0.007297   0.000010   0.000000  -0.000000   4.949187
    13  C   -0.037425   0.000125  -0.000000  -0.000000   0.000000   0.531808
    14  C   -0.005000   0.004731   0.000000  -0.000000  -0.000000  -0.025975
    15  C    0.510242  -0.067138  -0.000001  -0.000000   0.000000  -0.044610
    16  C   -0.000000  -0.000000  -0.052703   0.502846  -0.008122   0.000000
    17  C    0.000000  -0.000000   0.003363  -0.034478  -0.037425  -0.000000
    18  C   -0.000000   0.000000   0.000384  -0.040663  -0.005000   0.000000
    19  C    0.000000  -0.000000   0.006998  -0.071342   0.510245  -0.000000
    20  C   -0.036798   0.275068  -0.000001   0.000000   0.000000  -0.000051
    21  C   -0.000875  -0.052615  -0.000001  -0.000000   0.000000   0.000000
    22  C    0.000000   0.000002   0.004299   0.005949  -0.036796   0.000000
    23  C    0.000000   0.000003  -0.000127  -0.000345  -0.000875  -0.000000
    24  H   -0.000094  -0.009620   0.003068  -0.000000  -0.000094   0.000002
    25  H    0.003137  -0.000105   0.000003   0.000000  -0.000000   0.366707
    26  H    0.000570   0.000002   0.000000   0.000000  -0.000000  -0.040784
    27  H    0.003184  -0.000090  -0.000000  -0.000000   0.000000   0.004590
    28  H   -0.035728  -0.007889   0.000000   0.000000   0.000000   0.000278
    29  H   -0.000000   0.000000  -0.001859  -0.041956   0.003137   0.000000
    30  H   -0.000000   0.000000  -0.000128   0.004679   0.000570   0.000000
    31  H    0.000000  -0.000000   0.000018   0.000784   0.003184  -0.000000
    32  H    0.000000  -0.000000  -0.000262   0.005371  -0.035727  -0.000000
    33  H    0.003813  -0.032708  -0.000013   0.000000  -0.000000   0.000002
    34  H   -0.007526  -0.032866   0.000000   0.000000  -0.000000  -0.000002
    35  H    0.002457  -0.003902  -0.000000   0.000000  -0.000000  -0.000004
    36  H   -0.000112  -0.004277  -0.000001   0.000000   0.000000  -0.000000
    37  H   -0.000029   0.003744   0.000000   0.000000  -0.000000   0.000000
    38  H   -0.000000  -0.000018  -0.000065  -0.000230   0.003813   0.000000
    39  H   -0.000000  -0.000000  -0.000210   0.000109  -0.007524  -0.000000
    40  H   -0.000000  -0.000000   0.000009  -0.000099   0.002455   0.000000
    41  H    0.000000  -0.000004  -0.000090   0.000003  -0.000111  -0.000000
    42  H   -0.000000  -0.000000   0.000003   0.000006  -0.000029   0.000000
              13         14         15         16         17         18
     1  C   -0.000011   0.000004   0.006020   0.000001  -0.000000  -0.000000
     2  C    0.000003   0.000001  -0.000257  -0.000117   0.000003   0.000001
     3  C   -0.000000  -0.000000   0.000001   0.001178  -0.000011   0.000004
     4  N   -0.000000   0.000000  -0.000000   0.007297   0.000125   0.004731
     5  S    0.003363   0.000384   0.006998   0.000010  -0.000000   0.000000
     6  C   -0.034477  -0.040663  -0.071341   0.000000  -0.000000  -0.000000
     7  C   -0.037425  -0.005000   0.510242  -0.000000   0.000000  -0.000000
     8  N    0.000125   0.004731  -0.067138  -0.000000  -0.000000   0.000000
     9  S   -0.000000   0.000000  -0.000001  -0.052703   0.003363   0.000384
    10  C   -0.000000  -0.000000  -0.000000   0.502846  -0.034478  -0.040663
    11  C    0.000000  -0.000000   0.000000  -0.008122  -0.037425  -0.005000
    12  C    0.531808  -0.025975  -0.044610   0.000000  -0.000000   0.000000
    13  C    4.876386   0.531723  -0.037733  -0.000000  -0.000000  -0.000000
    14  C    0.531723   4.886396   0.520763   0.000000  -0.000000  -0.000000
    15  C   -0.037733   0.520763   5.009753  -0.000000  -0.000000   0.000000
    16  C   -0.000000   0.000000  -0.000000   4.949186   0.531808  -0.025975
    17  C   -0.000000  -0.000000  -0.000000   0.531808   4.876384   0.531724
    18  C   -0.000000  -0.000000   0.000000  -0.025975   0.531724   4.886397
    19  C   -0.000000   0.000000  -0.000000  -0.044610  -0.037733   0.520762
    20  C   -0.000008   0.000223  -0.001382   0.000000   0.000000   0.000000
    21  C    0.000001  -0.000003  -0.000297  -0.000000   0.000000  -0.000000
    22  C    0.000000   0.000000   0.000000  -0.000051  -0.000008   0.000223
    23  C    0.000000  -0.000000  -0.000000   0.000000   0.000001  -0.000003
    24  H   -0.000000   0.000000  -0.000003   0.000002  -0.000000   0.000000
    25  H   -0.033091   0.004078   0.000568   0.000000   0.000000   0.000000
    26  H    0.368763  -0.038730   0.004639   0.000000   0.000000   0.000000
    27  H   -0.037814   0.365694  -0.037480  -0.000000  -0.000000   0.000000
    28  H    0.003944  -0.036808   0.357637  -0.000000   0.000000   0.000000
    29  H    0.000000   0.000000   0.000000   0.366707  -0.033091   0.004078
    30  H    0.000000   0.000000   0.000000  -0.040784   0.368763  -0.038730
    31  H   -0.000000   0.000000  -0.000000   0.004590  -0.037814   0.365694
    32  H    0.000000   0.000000   0.000000   0.000278   0.003944  -0.036808
    33  H    0.000000  -0.000006   0.000159   0.000000  -0.000000  -0.000000
    34  H   -0.000008   0.000218   0.005064  -0.000000  -0.000000   0.000000
    35  H    0.000003  -0.000052   0.001322   0.000000  -0.000000   0.000000
    36  H   -0.000000   0.000001   0.000016  -0.000000  -0.000000  -0.000000
    37  H   -0.000000  -0.000000  -0.000062   0.000000   0.000000   0.000000
    38  H   -0.000000  -0.000000   0.000000   0.000002   0.000000  -0.000006
    39  H   -0.000000   0.000000  -0.000000  -0.000002  -0.000008   0.000218
    40  H   -0.000000   0.000000   0.000000  -0.000004   0.000003  -0.000052
    41  H   -0.000000  -0.000000  -0.000000  -0.000000  -0.000000   0.000001
    42  H    0.000000   0.000000  -0.000000   0.000000  -0.000000  -0.000000
              19         20         21         22         23         24
     1  C    0.000001  -0.048744  -0.000197   0.000560  -0.000006  -0.030723
     2  C   -0.000257   0.000370  -0.001611   0.000368  -0.001610   0.354954
     3  C    0.006020   0.000561  -0.000006  -0.048742  -0.000197  -0.030720
     4  N   -0.067138   0.000002   0.000003   0.275067  -0.052612  -0.009621
     5  S   -0.000001   0.004299  -0.000126  -0.000001  -0.000001   0.003068
     6  C   -0.000000   0.005949  -0.000345   0.000000  -0.000000  -0.000000
     7  C    0.000000  -0.036798  -0.000875   0.000000   0.000000  -0.000094
     8  N   -0.000000   0.275068  -0.052615   0.000002   0.000003  -0.009620
     9  S    0.006998  -0.000001  -0.000001   0.004299  -0.000127   0.003068
    10  C   -0.071342   0.000000  -0.000000   0.005949  -0.000345  -0.000000
    11  C    0.510245   0.000000   0.000000  -0.036796  -0.000875  -0.000094
    12  C   -0.000000  -0.000051   0.000000   0.000000  -0.000000   0.000002
    13  C   -0.000000  -0.000008   0.000001   0.000000   0.000000  -0.000000
    14  C    0.000000   0.000223  -0.000003   0.000000  -0.000000   0.000000
    15  C   -0.000000  -0.001382  -0.000297   0.000000  -0.000000  -0.000003
    16  C   -0.044610   0.000000  -0.000000  -0.000051   0.000000   0.000002
    17  C   -0.037733   0.000000   0.000000  -0.000008   0.000001  -0.000000
    18  C    0.520762   0.000000  -0.000000   0.000223  -0.000003   0.000000
    19  C    5.009751   0.000000  -0.000000  -0.001383  -0.000297  -0.000003
    20  C    0.000000   4.938257   0.367967   0.000001  -0.000031   0.006001
    21  C   -0.000000   0.367967   5.100612  -0.000031   0.000004  -0.000395
    22  C   -0.001383   0.000001  -0.000031   4.938255   0.367965   0.006000
    23  C   -0.000297  -0.000031   0.000004   0.367965   5.100616  -0.000395
    24  H   -0.000003   0.006001  -0.000395   0.006000  -0.000395   0.471260
    25  H    0.000000   0.000001  -0.000000   0.000000  -0.000000   0.000000
    26  H    0.000000  -0.000000   0.000000  -0.000000   0.000000   0.000000
    27  H   -0.000000   0.000001  -0.000001  -0.000000   0.000000  -0.000000
    28  H    0.000000   0.002073  -0.000066   0.000000  -0.000000  -0.000000
    29  H    0.000568   0.000000  -0.000000   0.000001  -0.000000   0.000000
    30  H    0.004639  -0.000000   0.000000  -0.000000   0.000000   0.000000
    31  H   -0.037479  -0.000000   0.000000   0.000001  -0.000001  -0.000000
    32  H    0.357637   0.000000  -0.000000   0.002074  -0.000066  -0.000000
    33  H    0.000000   0.376351  -0.038977   0.000020   0.000060   0.001705
    34  H   -0.000000   0.376938  -0.038243  -0.000000  -0.000000   0.000061
    35  H    0.000000  -0.031312   0.378673   0.000000  -0.000000  -0.000055
    36  H   -0.000000  -0.031990   0.378519  -0.000041  -0.000004   0.001233
    37  H   -0.000000  -0.026664   0.370699   0.000001   0.000000  -0.000004
    38  H    0.000159   0.000020   0.000060   0.376353  -0.038978   0.001703
    39  H    0.005065  -0.000000  -0.000000   0.376938  -0.038244   0.000061
    40  H    0.001322   0.000000  -0.000000  -0.031312   0.378673  -0.000055
    41  H    0.000016  -0.000041  -0.000004  -0.031991   0.378520   0.001234
    42  H   -0.000062   0.000001   0.000000  -0.026664   0.370698  -0.000004
              25         26         27         28         29         30
     1  C    0.000012  -0.000000   0.000002  -0.000131   0.000000   0.000000
     2  C    0.000000  -0.000000  -0.000000   0.000003   0.000000  -0.000000
     3  C    0.000000   0.000000   0.000000  -0.000000   0.000012  -0.000000
     4  N    0.000000   0.000000  -0.000000  -0.000000  -0.000105   0.000002
     5  S   -0.001859  -0.000128   0.000018  -0.000262   0.000003   0.000000
     6  C   -0.041956   0.004679   0.000784   0.005371   0.000000   0.000000
     7  C    0.003137   0.000570   0.003184  -0.035728  -0.000000  -0.000000
     8  N   -0.000105   0.000002  -0.000090  -0.007889   0.000000   0.000000
     9  S    0.000003   0.000000  -0.000000   0.000000  -0.001859  -0.000128
    10  C    0.000000   0.000000  -0.000000   0.000000  -0.041956   0.004679
    11  C   -0.000000  -0.000000   0.000000   0.000000   0.003137   0.000570
    12  C    0.366707  -0.040784   0.004590   0.000278   0.000000   0.000000
    13  C   -0.033091   0.368763  -0.037814   0.003944   0.000000   0.000000
    14  C    0.004078  -0.038730   0.365694  -0.036808   0.000000   0.000000
    15  C    0.000568   0.004639  -0.037480   0.357637   0.000000   0.000000
    16  C    0.000000   0.000000  -0.000000  -0.000000   0.366707  -0.040784
    17  C    0.000000   0.000000  -0.000000   0.000000  -0.033091   0.368763
    18  C    0.000000   0.000000   0.000000   0.000000   0.004078  -0.038730
    19  C    0.000000   0.000000  -0.000000   0.000000   0.000568   0.004639
    20  C    0.000001  -0.000000   0.000001   0.002073   0.000000  -0.000000
    21  C   -0.000000   0.000000  -0.000001  -0.000066  -0.000000   0.000000
    22  C    0.000000  -0.000000  -0.000000   0.000000   0.000001  -0.000000
    23  C   -0.000000   0.000000   0.000000  -0.000000  -0.000000   0.000000
    24  H    0.000000   0.000000  -0.000000  -0.000000   0.000000   0.000000
    25  H    0.513849  -0.004740  -0.000141   0.000013   0.000000  -0.000000
    26  H   -0.004740   0.534623  -0.004843  -0.000135  -0.000000  -0.000000
    27  H   -0.000141  -0.004843   0.532666  -0.004792  -0.000000   0.000000
    28  H    0.000013  -0.000135  -0.004792   0.516910  -0.000000  -0.000000
    29  H    0.000000  -0.000000  -0.000000  -0.000000   0.513849  -0.004740
    30  H   -0.000000  -0.000000   0.000000  -0.000000  -0.004740   0.534623
    31  H   -0.000000   0.000000   0.000000   0.000000  -0.000141  -0.004843
    32  H   -0.000000  -0.000000   0.000000  -0.000000   0.000013  -0.000135
    33  H   -0.000000  -0.000000  -0.000000   0.000005   0.000000  -0.000000
    34  H    0.000000  -0.000000   0.000003   0.002654   0.000000   0.000000
    35  H   -0.000000  -0.000000  -0.000002   0.000882  -0.000000   0.000000
    36  H    0.000000   0.000000   0.000000  -0.000023  -0.000000   0.000000
    37  H    0.000000  -0.000000   0.000000   0.000028  -0.000000  -0.000000
    38  H    0.000000  -0.000000   0.000000  -0.000000  -0.000000  -0.000000
    39  H    0.000000   0.000000  -0.000000  -0.000000   0.000000  -0.000000
    40  H   -0.000000   0.000000  -0.000000   0.000000  -0.000000  -0.000000
    41  H   -0.000000   0.000000  -0.000000  -0.000000   0.000000   0.000000
    42  H   -0.000000  -0.000000   0.000000  -0.000000   0.000000  -0.000000
              31         32         33         34         35         36
     1  C    0.000000  -0.000000  -0.008977   0.004930  -0.000125   0.002767
     2  C   -0.000000   0.000003   0.005669   0.000065   0.000035   0.001260
     3  C    0.000002  -0.000131   0.000587  -0.000014   0.000001  -0.000117
     4  N   -0.000090  -0.007889  -0.000018  -0.000000  -0.000000  -0.000004
     5  S   -0.000000   0.000000  -0.000065  -0.000210   0.000009  -0.000090
     6  C   -0.000000   0.000000  -0.000230   0.000109  -0.000099   0.000003
     7  C    0.000000   0.000000   0.003813  -0.007526   0.002457  -0.000112
     8  N   -0.000000  -0.000000  -0.032708  -0.032866  -0.003902  -0.004277
     9  S    0.000018  -0.000262  -0.000013   0.000000  -0.000000  -0.000001
    10  C    0.000784   0.005371   0.000000   0.000000   0.000000   0.000000
    11  C    0.003184  -0.035727  -0.000000  -0.000000  -0.000000   0.000000
    12  C   -0.000000  -0.000000   0.000002  -0.000002  -0.000004  -0.000000
    13  C   -0.000000   0.000000   0.000000  -0.000008   0.000003  -0.000000
    14  C    0.000000   0.000000  -0.000006   0.000218  -0.000052   0.000001
    15  C   -0.000000   0.000000   0.000159   0.005064   0.001322   0.000016
    16  C    0.004590   0.000278   0.000000  -0.000000   0.000000  -0.000000
    17  C   -0.037814   0.003944  -0.000000  -0.000000  -0.000000  -0.000000
    18  C    0.365694  -0.036808  -0.000000   0.000000   0.000000  -0.000000
    19  C   -0.037479   0.357637   0.000000  -0.000000   0.000000  -0.000000
    20  C   -0.000000   0.000000   0.376351   0.376938  -0.031312  -0.031990
    21  C    0.000000  -0.000000  -0.038977  -0.038243   0.378673   0.378519
    22  C    0.000001   0.002074   0.000020  -0.000000   0.000000  -0.000041
    23  C   -0.000001  -0.000066   0.000060  -0.000000  -0.000000  -0.000004
    24  H   -0.000000  -0.000000   0.001705   0.000061  -0.000055   0.001233
    25  H   -0.000000  -0.000000  -0.000000   0.000000  -0.000000   0.000000
    26  H    0.000000  -0.000000  -0.000000  -0.000000  -0.000000   0.000000
    27  H    0.000000   0.000000  -0.000000   0.000003  -0.000002   0.000000
    28  H    0.000000  -0.000000   0.000005   0.002654   0.000882  -0.000023
    29  H   -0.000141   0.000013   0.000000   0.000000  -0.000000  -0.000000
    30  H   -0.004843  -0.000135  -0.000000   0.000000   0.000000   0.000000
    31  H    0.532665  -0.004792   0.000000  -0.000000  -0.000000  -0.000000
    32  H   -0.004792   0.516909  -0.000000  -0.000000   0.000000  -0.000000
    33  H    0.000000  -0.000000   0.514683  -0.027922   0.004112  -0.004758
    34  H   -0.000000  -0.000000  -0.027922   0.509472  -0.004715   0.004082
    35  H   -0.000000   0.000000   0.004112  -0.004715   0.530022  -0.028916
    36  H   -0.000000  -0.000000  -0.004758   0.004082  -0.028916   0.531745
    37  H    0.000000  -0.000000  -0.000919  -0.001016  -0.025487  -0.025548
    38  H   -0.000000   0.000005  -0.000180  -0.000000  -0.000001   0.000424
    39  H    0.000003   0.002653  -0.000000   0.000000  -0.000000   0.000000
    40  H   -0.000002   0.000883  -0.000001  -0.000000   0.000000   0.000000
    41  H    0.000000  -0.000023   0.000424   0.000000   0.000000  -0.000005
    42  H    0.000000   0.000028  -0.000007  -0.000000   0.000000   0.000000
              37         38         39         40         41         42
     1  C   -0.000081   0.000587  -0.000014   0.000001  -0.000116   0.000001
     2  C   -0.000021   0.005671   0.000065   0.000035   0.001259  -0.000021
     3  C    0.000001  -0.008975   0.004930  -0.000125   0.002766  -0.000081
     4  N   -0.000000  -0.032712  -0.032869  -0.003901  -0.004276   0.003744
     5  S    0.000003  -0.000013   0.000000  -0.000000  -0.000001   0.000000
     6  C    0.000006   0.000000   0.000000   0.000000   0.000000   0.000000
     7  C   -0.000029  -0.000000  -0.000000  -0.000000   0.000000  -0.000000
     8  N    0.003744  -0.000018  -0.000000  -0.000000  -0.000004  -0.000000
     9  S    0.000000  -0.000065  -0.000210   0.000009  -0.000090   0.000003
    10  C    0.000000  -0.000230   0.000109  -0.000099   0.000003   0.000006
    11  C   -0.000000   0.003813  -0.007524   0.002455  -0.000111  -0.000029
[...]
    31  H   -0.000000   0.000000  -0.000000   0.004568  -0.037771   0.365564
    32  H    0.000000   0.000000   0.000000   0.000273   0.003906  -0.036693
    33  H    0.000000  -0.000006   0.000155   0.000000  -0.000000  -0.000000
    34  H   -0.000008   0.000215   0.005054  -0.000000  -0.000000   0.000000
    35  H    0.000003  -0.000054   0.001358   0.000000  -0.000000   0.000000
    36  H   -0.000000   0.000001   0.000018   0.000000  -0.000000  -0.000000
    37  H   -0.000000  -0.000000  -0.000063   0.000000   0.000000   0.000000
    38  H   -0.000000  -0.000000   0.000000   0.000002   0.000000  -0.000006
    39  H   -0.000000   0.000000  -0.000000  -0.000002  -0.000008   0.000215
    40  H   -0.000000   0.000000   0.000000  -0.000004   0.000003  -0.000054
    41  H   -0.000000  -0.000000  -0.000000  -0.000000  -0.000000   0.000001
    42  H    0.000000   0.000000  -0.000000   0.000000  -0.000000  -0.000000
              19         20         21         22         23         24
     1  C    0.000001  -0.048997  -0.000210   0.000583  -0.000001  -0.030684
     2  C   -0.000270   0.000533  -0.001705   0.000533  -0.001705   0.354980
     3  C    0.006057   0.000583  -0.000001  -0.048997  -0.000210  -0.030684
     4  N   -0.067060   0.000002   0.000003   0.273851  -0.053036  -0.009775
     5  S   -0.000001   0.004260  -0.000143   0.000000  -0.000001   0.003049
     6  C   -0.000000   0.005900  -0.000352   0.000000  -0.000000   0.000001
     7  C    0.000000  -0.036433  -0.000946   0.000000   0.000000  -0.000092
     8  N   -0.000000   0.273851  -0.053036   0.000002   0.000003  -0.009775
     9  S    0.007017   0.000000  -0.000001   0.004260  -0.000143   0.003049
    10  C   -0.071480   0.000000  -0.000000   0.005900  -0.000352   0.000001
    11  C    0.510334   0.000000   0.000000  -0.036433  -0.000946  -0.000092
    12  C   -0.000000  -0.000050  -0.000000   0.000000  -0.000000   0.000002
    13  C   -0.000000  -0.000007   0.000001   0.000000   0.000000  -0.000000
    14  C    0.000000   0.000216  -0.000001   0.000000  -0.000000   0.000000
    15  C   -0.000000  -0.001319  -0.000366   0.000000  -0.000000  -0.000003
    16  C   -0.044247   0.000000  -0.000000  -0.000050  -0.000000   0.000002
    17  C   -0.037765   0.000000   0.000000  -0.000007   0.000001  -0.000000
    18  C    0.520692   0.000000  -0.000000   0.000216  -0.000001   0.000000
    19  C    5.009821   0.000000  -0.000000  -0.001319  -0.000366  -0.000003
    20  C    0.000000   4.938916   0.368210   0.000003  -0.000037   0.006004
    21  C   -0.000000   0.368210   5.101565  -0.000037   0.000005  -0.000365
    22  C   -0.001319   0.000003  -0.000037   4.938916   0.368210   0.006004
    23  C   -0.000366  -0.000037   0.000005   0.368210   5.101565  -0.000365
    24  H   -0.000003   0.006004  -0.000365   0.006004  -0.000365   0.470283
    25  H    0.000000   0.000001  -0.000000   0.000000  -0.000000   0.000000
    26  H    0.000000  -0.000000   0.000000  -0.000000   0.000000   0.000000
    27  H   -0.000000   0.000001  -0.000001  -0.000000   0.000000  -0.000000
    28  H    0.000000   0.002198  -0.000096   0.000000  -0.000000  -0.000000
    29  H    0.000564   0.000000  -0.000000   0.000001  -0.000000   0.000000
    30  H    0.004598  -0.000000   0.000000  -0.000000   0.000000   0.000000
    31  H   -0.037464  -0.000000   0.000000   0.000001  -0.000001  -0.000000
    32  H    0.357455   0.000000  -0.000000   0.002198  -0.000096  -0.000000
    33  H    0.000000   0.376799  -0.039340   0.000020   0.000070   0.001407
    34  H   -0.000000   0.377095  -0.038568  -0.000000  -0.000000   0.000071
    35  H    0.000000  -0.031397   0.378678   0.000000  -0.000000  -0.000062
    36  H   -0.000000  -0.032306   0.378621  -0.000048  -0.000006   0.001334
    37  H   -0.000000  -0.027402   0.370458   0.000001   0.000000  -0.000005
    38  H    0.000155   0.000020   0.000070   0.376799  -0.039340   0.001407
    39  H    0.005054  -0.000000  -0.000000   0.377095  -0.038568   0.000071
    40  H    0.001358   0.000000  -0.000000  -0.031397   0.378678  -0.000062
    41  H    0.000018  -0.000048  -0.000006  -0.032306   0.378621   0.001334
    42  H   -0.000063   0.000001   0.000000  -0.027402   0.370458  -0.000005
              25         26         27         28         29         30
     1  C    0.000011  -0.000000   0.000002  -0.000136   0.000000   0.000000
     2  C    0.000000  -0.000000  -0.000000   0.000003   0.000000  -0.000000
     3  C    0.000000   0.000000   0.000000  -0.000000   0.000011  -0.000000
     4  N    0.000000   0.000000  -0.000000  -0.000000  -0.000104   0.000002
     5  S   -0.001877  -0.000128   0.000018  -0.000266   0.000003   0.000000
     6  C   -0.041793   0.004664   0.000783   0.005416   0.000000   0.000000
     7  C    0.003113   0.000566   0.003178  -0.035593   0.000000  -0.000000
     8  N   -0.000104   0.000002  -0.000091  -0.008046   0.000000   0.000000
     9  S    0.000003   0.000000  -0.000000   0.000000  -0.001877  -0.000128
    10  C    0.000000   0.000000  -0.000000   0.000000  -0.041793   0.004664
    11  C    0.000000  -0.000000   0.000000   0.000000   0.003113   0.000566
    12  C    0.366661  -0.040712   0.004568   0.000273   0.000000   0.000000
    13  C   -0.033010   0.368695  -0.037771   0.003906   0.000000   0.000000
    14  C    0.004057  -0.038592   0.365564  -0.036693   0.000000   0.000000
    15  C    0.000564   0.004598  -0.037464   0.357455   0.000000   0.000000
    16  C    0.000000   0.000000  -0.000000  -0.000000   0.366661  -0.040712
    17  C    0.000000   0.000000  -0.000000   0.000000  -0.033010   0.368695
    18  C    0.000000   0.000000   0.000000   0.000000   0.004057  -0.038592
    19  C    0.000000   0.000000  -0.000000   0.000000   0.000564   0.004598
    20  C    0.000001  -0.000000   0.000001   0.002198   0.000000  -0.000000
    21  C   -0.000000   0.000000  -0.000001  -0.000096  -0.000000   0.000000
    22  C    0.000000  -0.000000  -0.000000   0.000000   0.000001  -0.000000
    23  C   -0.000000   0.000000   0.000000  -0.000000  -0.000000   0.000000
    24  H    0.000000   0.000000  -0.000000  -0.000000   0.000000   0.000000
    25  H    0.513477  -0.004701  -0.000140   0.000012   0.000000  -0.000000
    26  H   -0.004701   0.534378  -0.004820  -0.000133  -0.000000  -0.000000
    27  H   -0.000140  -0.004820   0.532924  -0.004745  -0.000000   0.000000
    28  H    0.000012  -0.000133  -0.004745   0.516902  -0.000000  -0.000000
    29  H    0.000000  -0.000000  -0.000000  -0.000000   0.513477  -0.004701
    30  H   -0.000000  -0.000000   0.000000  -0.000000  -0.004701   0.534378
    31  H   -0.000000   0.000000   0.000000   0.000000  -0.000140  -0.004820
    32  H   -0.000000  -0.000000   0.000000  -0.000000   0.000012  -0.000133
    33  H   -0.000000  -0.000000  -0.000000   0.000009   0.000000  -0.000000
    34  H    0.000000  -0.000000   0.000003   0.002523   0.000000   0.000000
    35  H   -0.000000  -0.000000  -0.000002   0.000969  -0.000000   0.000000
    36  H    0.000000   0.000000   0.000000  -0.000025  -0.000000   0.000000
    37  H    0.000000  -0.000000   0.000000   0.000031  -0.000000  -0.000000
    38  H    0.000000  -0.000000   0.000000  -0.000000  -0.000000  -0.000000
    39  H    0.000000   0.000000  -0.000000  -0.000000   0.000000  -0.000000
    40  H   -0.000000   0.000000  -0.000000   0.000000  -0.000000  -0.000000
    41  H   -0.000000   0.000000  -0.000000  -0.000000   0.000000   0.000000
    42  H   -0.000000  -0.000000   0.000000  -0.000000   0.000000  -0.000000
              31         32         33         34         35         36
     1  C    0.000000  -0.000000  -0.009056   0.004918  -0.000127   0.002767
     2  C   -0.000000   0.000003   0.005984   0.000074   0.000037   0.001179
     3  C    0.000002  -0.000136   0.000617  -0.000015   0.000001  -0.000117
     4  N   -0.000091  -0.008046  -0.000021  -0.000000  -0.000000  -0.000003
     5  S   -0.000000   0.000000  -0.000066  -0.000206   0.000010  -0.000089
     6  C   -0.000000   0.000000  -0.000221   0.000099  -0.000094   0.000002
     7  C    0.000000   0.000000   0.003796  -0.007348   0.002466  -0.000103
     8  N   -0.000000  -0.000000  -0.032664  -0.033014  -0.004010  -0.004372
     9  S    0.000018  -0.000266  -0.000014   0.000000  -0.000000  -0.000001
    10  C    0.000783   0.005416   0.000000   0.000000   0.000000   0.000000
    11  C    0.003178  -0.035593  -0.000000  -0.000000  -0.000000   0.000000
    12  C   -0.000000  -0.000000   0.000002  -0.000002  -0.000004  -0.000000
    13  C   -0.000000   0.000000   0.000000  -0.000008   0.000003  -0.000000
    14  C    0.000000   0.000000  -0.000006   0.000215  -0.000054   0.000001
    15  C   -0.000000   0.000000   0.000155   0.005054   0.001358   0.000018
    16  C    0.004568   0.000273   0.000000  -0.000000   0.000000   0.000000
    17  C   -0.037771   0.003906  -0.000000  -0.000000  -0.000000  -0.000000
    18  C    0.365564  -0.036693  -0.000000   0.000000   0.000000  -0.000000
    19  C   -0.037464   0.357455   0.000000  -0.000000   0.000000  -0.000000
    20  C   -0.000000   0.000000   0.376799   0.377095  -0.031397  -0.032306
    21  C    0.000000  -0.000000  -0.039340  -0.038568   0.378678   0.378621
    22  C    0.000001   0.002198   0.000020  -0.000000   0.000000  -0.000048
    23  C   -0.000001  -0.000096   0.000070  -0.000000  -0.000000  -0.000006
    24  H   -0.000000  -0.000000   0.001407   0.000071  -0.000062   0.001334
    25  H   -0.000000  -0.000000  -0.000000   0.000000  -0.000000   0.000000
    26  H    0.000000  -0.000000  -0.000000  -0.000000  -0.000000   0.000000
    27  H    0.000000   0.000000  -0.000000   0.000003  -0.000002   0.000000
    28  H    0.000000  -0.000000   0.000009   0.002523   0.000969  -0.000025
    29  H   -0.000140   0.000012   0.000000   0.000000  -0.000000  -0.000000
    30  H   -0.004820  -0.000133  -0.000000   0.000000   0.000000   0.000000
    31  H    0.532924  -0.004745   0.000000  -0.000000  -0.000000  -0.000000
    32  H   -0.004745   0.516902  -0.000000  -0.000000   0.000000  -0.000000
    33  H    0.000000  -0.000000   0.513383  -0.027291   0.004147  -0.004798
    34  H   -0.000000  -0.000000  -0.027291   0.508981  -0.004804   0.004125
    35  H   -0.000000   0.000000   0.004147  -0.004804   0.529116  -0.028353
    36  H   -0.000000  -0.000000  -0.004798   0.004125  -0.028353   0.530675
    37  H    0.000000  -0.000000  -0.001010  -0.001030  -0.025269  -0.025406
    38  H   -0.000000   0.000009  -0.000186  -0.000000  -0.000001   0.000496
    39  H    0.000003   0.002523  -0.000000   0.000000  -0.000000   0.000000
    40  H   -0.000002   0.000969  -0.000001  -0.000000   0.000000   0.000000
    41  H    0.000000  -0.000025   0.000496   0.000000   0.000000  -0.000006
    42  H    0.000000   0.000031  -0.000008  -0.000000   0.000000   0.000001
              37         38         39         40         41         42
     1  C   -0.000083   0.000617  -0.000015   0.000001  -0.000117   0.000001
     2  C   -0.000019   0.005984   0.000074   0.000037   0.001179  -0.000019
     3  C    0.000001  -0.009056   0.004918  -0.000127   0.002767  -0.000083
     4  N   -0.000000  -0.032664  -0.033014  -0.004010  -0.004372   0.003839
     5  S    0.000004  -0.000014   0.000000  -0.000000  -0.000001   0.000000
     6  C    0.000006   0.000000   0.000000   0.000000   0.000000   0.000000
     7  C   -0.000029  -0.000000  -0.000000  -0.000000   0.000000  -0.000000
     8  N    0.003839  -0.000021  -0.000000  -0.000000  -0.000003  -0.000000
     9  S    0.000000  -0.000066  -0.000206   0.000010  -0.000089   0.000004
    10  C    0.000000  -0.000221   0.000099  -0.000094   0.000002   0.000006
    11  C   -0.000000   0.003796  -0.007348   0.002466  -0.000103  -0.000029
    12  C    0.000000   0.000000  -0.000000   0.000000   0.000000   0.000000
    13  C   -0.000000  -0.000000  -0.000000  -0.000000  -0.000000   0.000000
    14  C   -0.000000  -0.000000   0.000000   0.000000  -0.000000   0.000000
    15  C   -0.000063   0.000000  -0.000000   0.000000  -0.000000  -0.000000
    16  C    0.000000   0.000002  -0.000002  -0.000004  -0.000000   0.000000
    17  C    0.000000   0.000000  -0.000008   0.000003  -0.000000  -0.000000
    18  C    0.000000  -0.000006   0.000215  -0.000054   0.000001  -0.000000
    19  C   -0.000000   0.000155   0.005054   0.001358   0.000018  -0.000063
    20  C   -0.027402   0.000020  -0.000000   0.000000  -0.000048   0.000001
    21  C    0.370458   0.000070  -0.000000  -0.000000  -0.000006   0.000000
    22  C    0.000001   0.376799   0.377095  -0.031397  -0.032306  -0.027402
    23  C    0.000000  -0.039340  -0.038568   0.378678   0.378621   0.370458
    24  H   -0.000005   0.001407   0.000071  -0.000062   0.001334  -0.000005
    25  H    0.000000   0.000000   0.000000  -0.000000  -0.000000  -0.000000
    26  H   -0.000000  -0.000000   0.000000   0.000000   0.000000  -0.000000
    27  H    0.000000   0.000000  -0.000000  -0.000000  -0.000000   0.000000
    28  H    0.000031  -0.000000  -0.000000   0.000000  -0.000000  -0.000000
    29  H   -0.000000  -0.000000   0.000000  -0.000000   0.000000   0.000000
    30  H   -0.000000  -0.000000  -0.000000  -0.000000   0.000000  -0.000000
    31  H    0.000000  -0.000000   0.000003  -0.000002   0.000000   0.000000
    32  H   -0.000000   0.000009   0.002523   0.000969  -0.000025   0.000031
    33  H   -0.001010  -0.000186  -0.000000  -0.000001   0.000496  -0.000008
    34  H   -0.001030  -0.000000   0.000000  -0.000000   0.000000  -0.000000
    35  H   -0.025269  -0.000001  -0.000000   0.000000   0.000000   0.000000
    36  H   -0.025406   0.000496   0.000000   0.000000  -0.000006   0.000001
    37  H    0.527705  -0.000008  -0.000000   0.000000   0.000001  -0.000000
    38  H   -0.000008   0.513383  -0.027291   0.004147  -0.004798  -0.001010
    39  H   -0.000000  -0.027291   0.508981  -0.004804   0.004125  -0.001030
    40  H    0.000000   0.004147  -0.004804   0.529116  -0.028353  -0.025269
    41  H    0.000001  -0.004798   0.004125  -0.028353   0.530675  -0.025406
    42  H   -0.000000  -0.001010  -0.001030  -0.025269  -0.025406   0.527705
 Mulliken charges:
               1
     1  C    0.141877
     2  C   -0.275460
     3  C    0.141877
     4  N   -0.517736
     5  S    0.310638
     6  C   -0.181484
     7  C    0.372354
     8  N   -0.517737
     9  S    0.310638
    10  C   -0.181484
    11  C    0.372354
    12  C   -0.191602
    13  C   -0.136137
    14  C   -0.167495
    15  C   -0.163085
    16  C   -0.191602
    17  C   -0.136137
    18  C   -0.167495
    19  C   -0.163085
    20  C   -0.176600
    21  C   -0.462436
    22  C   -0.176600
    23  C   -0.462436
    24  H    0.232973
    25  H    0.193726
    26  H    0.176183
    27  H    0.177994
    28  H    0.196034
    29  H    0.193726
    30  H    0.176184
    31  H    0.177994
    32  H    0.196034
    33  H    0.207797
    34  H    0.209128
    35  H    0.177394
    36  H    0.176415
    37  H    0.178277
    38  H    0.207797
    39  H    0.209128
    40  H    0.177394
    41  H    0.176415
    42  H    0.178277
 Sum of Mulliken charges =   1.00000
 Mulliken charges with hydrogens summed into heavy atoms:
               1
     1  C    0.141877
     2  C   -0.042487
     3  C    0.141877
     4  N   -0.517736
     5  S    0.310638
     6  C   -0.181484
     7  C    0.372354
     8  N   -0.517737
     9  S    0.310638
    10  C   -0.181484
    11  C    0.372354
    12  C    0.002124
    13  C    0.040047
    14  C    0.010499
    15  C    0.032950
    16  C    0.002124
    17  C    0.040047
    18  C    0.010499
    19  C    0.032950
    20  C    0.240326
    21  C    0.069649
    22  C    0.240326
    23  C    0.069649
 Electronic spatial extent (au):  <R**2>=          10356.6931
 Charge=              1.0000 electrons
 Dipole moment (field-independent basis, Debye):
    X=              0.0000    Y=              5.2495    Z=              0.0000  Tot=              5.2495
 Quadrupole moment (field-independent basis, Debye-Ang):
   XX=            -66.0213   YY=           -108.9119   ZZ=           -151.5802
   XY=             -0.0000   XZ=              2.4471   YZ=             -0.0000
 Traceless Quadrupole moment (field-independent basis, Debye-Ang):
   XX=             42.8165   YY=             -0.0741   ZZ=            -42.7424
   XY=             -0.0000   XZ=              2.4471   YZ=             -0.0000
 Octapole moment (field-independent basis, Debye-Ang**2):
  XXX=              0.0001  YYY=             22.4318  ZZZ=             -0.0000  XYY=              0.0000
  XXY=             -4.2801  XXZ=              0.0001  XZZ=              0.0000  YZZ=             13.7833
  YYZ=              0.0000  XYZ=              9.4769
 Hexadecapole moment (field-independent basis, Debye-Ang**3):
 XXXX=          -8402.5978 YYYY=          -2309.3839 ZZZZ=           -307.3569 XXXY=             -0.0002
 XXXZ=             71.9855 YYYX=             -0.0001 YYYZ=             -0.0000 ZZZX=             -5.7892
 ZZZY=              0.0000 XXYY=          -1810.7086 XXZZ=          -2063.6422 YYZZ=           -504.4444
 XXYZ=             -0.0002 YYXZ=              0.1923 ZZXY=              0.0000
 N-N= 2.128265228449D+03 E-N=-8.081225293134D+03  KE= 1.630275772025D+03
 Unable to Open any file for archive entry.
 1\1\GINC-CN02\FOpt\RB3LYP\6-31G(d)\C19H19N2S2(1+)\2100011873\06-Nov-20
 23\0\\# opt b3lyp/6-31g* scrf(smd, solvent=ethanol)\\A-1\\1,1\C,-1.257
 031509,0.2007203973,-0.040088747\C,0.0000036397,0.8101409442,0.0000166
 006\C,1.257037749,0.2007173604,0.0401118808\N,2.4265564603,0.889954014
 6,0.1625856746\S,-1.5647755633,-1.5305801555,0.0810570543\C,-3.3045931
 992,-1.2661650217,-0.0017173038\C,-3.5841547005,0.103091441,-0.1177063
 894\N,-2.4265492775,0.8899617095,-0.1625477789\S,1.5647787508,-1.53058
 13875,-0.0810687418\C,3.3045967621,-1.2661710706,0.0017129677\C,3.5841
 606319,0.1030825817,0.1177295174\C,-4.3158897242,-2.2231079966,0.04323
 60992\C,-5.636202853,-1.7797140174,-0.0237547132\C,-5.9248432687,-0.41
 18746008,-0.1308070083\C,-4.9114439617,0.5434091511,-0.1779150384\C,4.
 3158917301,-2.2231148895,-0.0432580874\C,5.6362055286,-1.7797245037,0.
 0237429871\C,5.9248482659,-0.4118877129,0.1308226098\C,4.9114505619,0.
 5433968635,0.1779484165\C,-2.4925293516,2.358709106,-0.3116126497\C,-2
 .5551652045,3.086090046,1.0282091177\C,2.492539256,2.3586982405,0.3116
 812788\C,2.5551802602,3.0861067695,-1.0281252864\H,0.000004655,1.89040
 93697,0.0000263011\H,-4.0836204787,-3.2799162359,0.1304620043\H,-6.445
 203739,-2.5030664292,0.0113610722\H,-6.9589244107,-0.083436941,-0.1755
 404292\H,-5.1540750346,1.5972740688,-0.2517098587\H,4.0836208182,-3.27
 99210272,-0.1305050299\H,6.4452052037,-2.5030776204,-0.0113862466\H,6.
 9589299546,-0.0834528155,0.1755636276\H,5.1540833308,1.59725989,0.2517
 643811\H,-1.6290396078,2.6713185424,-0.9011966577\H,-3.3751804812,2.57
 18258768,-0.9169215803\H,-3.4423871948,2.7893283371,1.5970365224\H,-1.
 6682070408,2.8811664107,1.6365308725\H,-2.607418261,4.165317121,0.8477
 486774\H,1.629048098,2.6712971346,0.9012687509\H,3.3751889053,2.571800
 5529,0.9169974272\H,3.4424021375,2.7893537369,-1.5969573791\H,1.668222
 2858,2.8811988562,-1.6364526059\H,2.60743687,4.1653299028,-0.847642309
 3\\Version=ES64L-G16RevC.02\State=1-A\HF=-1641.2462152\RMSD=8.866e-09\
 RMSF=3.132e-06\Dipole=0.0000036,2.0653031,0.0000215\Quadrupole=31.8389
 872,-0.0551033,-31.7838839,-0.0000482,1.7121754,0.0003116\PG=C01 [X(C1
 9H19N2S2)]\\@
 The archive entry for this job was punched.


 Once you get people laughing, they're
 listening and you can tell them almost anything.
                                 -- Herb Gardner
 Job cpu time:       0 days  1 hours 35 minutes 14.3 seconds.
 Elapsed time:       0 days  0 hours  3 minutes 46.6 seconds.
 File lengths (MBytes):  RWF=    496 Int=      0 D2E=      0 Chk=     48 Scr=     32
 Normal termination of Gaussian 16 at Mon Nov  6 21:21:31 2023.
