 Entering Gaussian System, Link 0=g16
 Initial command:
 /nfs-share/home/2100011873/Gaussian16_AVX2/g16/l1.exe "/nfs-share/home/2100011873/GaussTmp/Gau-208716.inp" -scrdir="/nfs-share/home/2100011873/GaussTmp/"
 Entering Link 1 = /nfs-share/home/2100011873/Gaussian16_AVX2/g16/l1.exe PID=    208717.
  
 Copyright (c) 1988-2021, Gaussian, Inc.  All Rights Reserved.
  
 This is part of the Gaussian(R) 16 program.  It is based on
 the Gaussian(R) 09 system (copyright 2009, Gaussian, Inc.),
 the Gaussian(R) 03 system (copyright 2003, Gaussian, Inc.),
 the Gaussian(R) 98 system (copyright 1998, Gaussian, Inc.),
 the Gaussian(R) 94 system (copyright 1995, Gaussian, Inc.),
 the Gaussian 92(TM) system (copyright 1992, Gaussian, Inc.),
 the Gaussian 90(TM) system (copyright 1990, Gaussian, Inc.),
 the Gaussian 88(TM) system (copyright 1988, Gaussian, Inc.),
 the Gaussian 86(TM) system (copyright 1986, Carnegie Mellon
 University), and the Gaussian 82(TM) system (copyright 1983,
 Carnegie Mellon University). Gaussian is a federally registered
 trademark of Gaussian, Inc.
  
 This software contains proprietary and confidential information,
 including trade secrets, belonging to Gaussian, Inc.
  
 This software is provided under written license and may be
 used, copied, transmitted, or stored only in accord with that
 written license.
  
 The following legend is applicable only to US Government
 contracts under FAR:
  
                    RESTRICTED RIGHTS LEGEND
  
 Use, reproduction and disclosure by the US Government is
 subject to restrictions as set forth in subparagraphs (a)
 and (c) of the Commercial Computer Software - Restricted
 Rights clause in FAR 52.227-19.
  
 Gaussian, Inc.
 340 Quinnipiac St., Bldg. 40, Wallingford CT 06492
  
  
 ---------------------------------------------------------------
 Warning -- This program may not be used in any manner that
 competes with the business of Gaussian, Inc. or will provide
 assistance to any competitor of Gaussian, Inc.  The licensee
 of this program is prohibited from giving any competitor of
 Gaussian, Inc. access to this program.  By using this program,
 the user acknowledges that Gaussian, Inc. is engaged in the
 business of creating and licensing software in the field of
 computational chemistry and represents and warrants to the
 licensee that it is not a competitor of Gaussian, Inc. and that
 it will not use this program in any manner prohibited above.
 ---------------------------------------------------------------
  

 Cite this work as:
 Gaussian 16, Revision C.02,
 M. J. Frisch, G. W. Trucks, H. B. Schlegel, G. E. Scuseria, 
 M. A. Robb, J. R. Cheeseman, G. Scalmani, V. Barone, 
 G. A. Petersson, H. Nakatsuji, X. Li, M. Caricato, A. V. Marenich, 
 J. Bloino, B. G. Janesko, R. Gomperts, B. Mennucci, H. P. Hratchian, 
 J. V. Ortiz, A. F. Izmaylov, J. L. Sonnenberg, D. Williams-Young, 
 F. Ding, F. Lipparini, F. Egidi, J. Goings, B. Peng, A. Petrone, 
 T. Henderson, D. Ranasinghe, V. G. Zakrzewski, J. Gao, N. Rega, 
 G. Zheng, W. Liang, M. Hada, M. Ehara, K. Toyota, R. Fukuda, 
 J. Hasegawa, M. Ishida, T. Nakajima, Y. Honda, O. Kitao, H. Nakai, 
 T. Vreven, K. Throssell, J. A. Montgomery, Jr., J. E. Peralta, 
 F. Ogliaro, M. J. Bearpark, J. J. Heyd, E. N. Brothers, K. N. Kudin, 
 V. N. Staroverov, T. A. Keith, R. Kobayashi, J. Normand, 
 K. Raghavachari, A. P. Rendell, J. C. Burant, S. S. Iyengar, 
 J. Tomasi, M. Cossi, J. M. Millam, M. Klene, C. Adamo, R. Cammi, 
 J. W. Ochterski, R. L. Martin, K. Morokuma, O. Farkas, 
 J. B. Foresman, and D. J. Fox, Gaussian, Inc., Wallingford CT, 2019.
 
 ******************************************
 Gaussian 16:  ES64L-G16RevC.02  7-Dec-2021
                 6-Nov-2023 
 ******************************************
 %chk=A4.chk
 %nprocshared=36
 Will use up to   36 processors via shared memory.
 %mem=128GB
 ---------------------------------------------
 # opt b3lyp/6-31g* scrf(smd, solvent=ethanol)
 ---------------------------------------------
 1/18=20,19=15,26=3,38=1/1,3;
 2/9=110,12=2,17=6,18=5,40=1/2;
 3/5=1,6=6,7=1,11=2,25=1,30=1,70=32201,71=1,72=4,74=-5/1,2,3;
 4//1;
 5/5=2,38=5,53=4/2;
 6/7=2,8=2,9=2,10=2,28=1/1;
 7//1,2,3,16;
 1/18=20,19=15,26=3/3(2);
 2/9=110/2;
 99//99;
 2/9=110/2;
 3/5=1,6=6,7=1,11=2,25=1,30=1,70=32205,71=1,72=4,74=-5/1,2,3;
 4/5=5,16=3,69=1/1;
 5/5=2,38=5,53=4/2;
 7//1,2,3,16;
 1/18=20,19=15,26=3/3(-5);
 2/9=110/2;
 6/7=2,8=2,9=2,10=2,19=2,28=1/1;
 99/9=1/99;
 ---
 A-4
 ---
 Symbolic Z-matrix:
 Charge =  1 Multiplicity = 1
 C                    -3.66371  -1.05195  -0.11156 
 C                    -2.38964  -0.47998  -0.08346 
 C                    -1.19497  -1.195    -0.06404 
 C                     0.05835  -0.57832  -0.03561 
 C                    -4.85534  -0.32376  -0.12489 
 S                    -4.92666   1.43671  -0.06062 
 C                    -6.68823   1.40203  -0.08329 
 C                    -7.15496   0.07936  -0.13945 
 N                    -6.11186  -0.85727  -0.18359 
 C                    -7.56515   2.4827   -0.04892 
 C                    -8.93496   2.22022  -0.06579 
 C                    -9.40707   0.90276  -0.11322 
 C                    -8.52936  -0.17953  -0.14882 
 C                    -6.36628  -2.30687  -0.24831 
 C                    -6.46714  -2.95588   1.13326 
 C                     1.28216  -1.24609  -0.01605 
 C                     2.51113  -0.58289   0.01194 
 C                     3.74122  -1.24435  -0.00844 
 C                     5.05244  -0.74902   0.00881 
 S                     6.36259  -1.86699  -0.36529 
 C                     7.56298  -0.60081  -0.16552 
 C                     6.94102   0.61236   0.16985 
 N                     5.54483   0.4953    0.28326 
 C                     8.94627  -0.69554  -0.30211 
 C                     9.70836   0.45414  -0.1007 
 C                     9.09298   1.66866   0.22877 
 C                     7.70945   1.76455   0.3665 
 C                     4.73281   1.62303   0.77014 
 C                     4.28228   2.56989  -0.34424 
 H                    -3.73183  -2.13483  -0.11343 
 H                    -2.31025   0.60799  -0.07629 
 H                    -1.23762  -2.28343  -0.07261 
 H                     0.07916   0.51298  -0.02766 
 H                    -7.19294   3.50135  -0.00844 
 H                    -9.63821   3.04629  -0.03843 
 H                    -10.47604   0.71486  -0.1197 
 H                    -8.91454  -1.19267  -0.17489 
 H                    -7.28921  -2.44204  -0.81662 
 H                    -5.57073  -2.7575   -0.84565 
 H                    -6.66636  -4.02676   1.02338 
 H                    -5.53664  -2.83556   1.69652 
 H                    -7.28005  -2.51465   1.718 
 H                     1.27987  -2.33528  -0.02423 
 H                     2.47239   0.50228   0.01364 
 H                     3.69108  -2.32677  -0.1054 
 H                     9.41663  -1.63929  -0.55871 
 H                     10.78759   0.40544  -0.2035 
 H                     9.70031   2.55586   0.37729 
 H                     7.25129   2.71614   0.61119 
 H                     3.88711   1.20264   1.31689 
 H                     5.34278   2.15493   1.50515 
 H                     3.66872   2.05491  -1.08995 
 H                     3.6925    3.38719   0.08394 
 H                     5.14149   3.00595  -0.86259 
 

 GradGradGradGradGradGradGradGradGradGradGradGradGradGradGradGradGradGrad
 Berny optimization.
 Initialization pass.
                           ----------------------------
                           !    Initial Parameters    !
                           ! (Angstroms and Degrees)  !
 --------------------------                            --------------------------
 ! Name  Definition              Value          Derivative Info.                !
 --------------------------------------------------------------------------------
 ! R1    R(1,2)                  1.3969         estimate D2E/DX2                !
 ! R2    R(1,5)                  1.3966         estimate D2E/DX2                !
 ! R3    R(1,30)                 1.085          estimate D2E/DX2                !
 ! R4    R(2,3)                  1.3924         estimate D2E/DX2                !
 ! R5    R(2,31)                 1.0909         estimate D2E/DX2                !
 ! R6    R(3,4)                  1.3971         estimate D2E/DX2                !
 ! R7    R(3,32)                 1.0893         estimate D2E/DX2                !
 ! R8    R(4,16)                 1.3943         estimate D2E/DX2                !
 ! R9    R(4,33)                 1.0915         estimate D2E/DX2                !
 ! R10   R(5,6)                  1.7631         estimate D2E/DX2                !
 ! R11   R(5,9)                  1.3663         estimate D2E/DX2                !
 ! R12   R(6,7)                  1.7621         estimate D2E/DX2                !
 ! R13   R(7,8)                  1.4037         estimate D2E/DX2                !
 ! R14   R(7,10)                 1.3921         estimate D2E/DX2                !
 ! R15   R(8,9)                  1.4026         estimate D2E/DX2                !
 ! R16   R(8,13)                 1.3986         estimate D2E/DX2                !
 ! R17   R(9,14)                 1.4732         estimate D2E/DX2                !
 ! R18   R(10,11)                1.3948         estimate D2E/DX2                !
 ! R19   R(10,34)                1.0853         estimate D2E/DX2                !
 ! R20   R(11,12)                1.4003         estimate D2E/DX2                !
 ! R21   R(11,35)                1.0852         estimate D2E/DX2                !
 ! R22   R(12,13)                1.3939         estimate D2E/DX2                !
 ! R23   R(12,36)                1.0854         estimate D2E/DX2                !
 ! R24   R(13,37)                1.0842         estimate D2E/DX2                !
 ! R25   R(14,15)                1.5297         estimate D2E/DX2                !
 ! R26   R(14,38)                1.0923         estimate D2E/DX2                !
 ! R27   R(14,39)                1.0921         estimate D2E/DX2                !
 ! R28   R(15,40)                1.0948         estimate D2E/DX2                !
 ! R29   R(15,41)                1.0943         estimate D2E/DX2                !
 ! R30   R(15,42)                1.0943         estimate D2E/DX2                !
 ! R31   R(16,17)                1.3968         estimate D2E/DX2                !
 ! R32   R(16,43)                1.0892         estimate D2E/DX2                !
 ! R33   R(17,18)                1.3968         estimate D2E/DX2                !
 ! R34   R(17,44)                1.0859         estimate D2E/DX2                !
 ! R35   R(18,19)                1.4018         estimate D2E/DX2                !
 ! R36   R(18,45)                1.0879         estimate D2E/DX2                !
 ! R37   R(19,20)                1.7625         estimate D2E/DX2                !
 ! R38   R(19,23)                1.3661         estimate D2E/DX2                !
 ! R39   R(20,21)                1.7562         estimate D2E/DX2                !
 ! R40   R(21,22)                1.404          estimate D2E/DX2                !
 ! R41   R(21,24)                1.3932         estimate D2E/DX2                !
 ! R42   R(22,23)                1.4057         estimate D2E/DX2                !
 ! R43   R(22,27)                1.3988         estimate D2E/DX2                !
 ! R44   R(23,28)                1.4725         estimate D2E/DX2                !
 ! R45   R(24,25)                1.394          estimate D2E/DX2                !
 ! R46   R(24,46)                1.0852         estimate D2E/DX2                !
 ! R47   R(25,26)                1.4008         estimate D2E/DX2                !
 ! R48   R(25,47)                1.0852         estimate D2E/DX2                !
 ! R49   R(26,27)                1.3937         estimate D2E/DX2                !
 ! R50   R(26,48)                1.0854         estimate D2E/DX2                !
 ! R51   R(27,49)                1.0841         estimate D2E/DX2                !
 ! R52   R(28,29)                1.5302         estimate D2E/DX2                !
 ! R53   R(28,50)                1.0913         estimate D2E/DX2                !
 ! R54   R(28,51)                1.0933         estimate D2E/DX2                !
 ! R55   R(29,52)                1.0944         estimate D2E/DX2                !
 ! R56   R(29,53)                1.0951         estimate D2E/DX2                !
 ! R57   R(29,54)                1.0941         estimate D2E/DX2                !
 ! A1    A(2,1,5)              124.3986         estimate D2E/DX2                !
 ! A2    A(2,1,30)             117.7723         estimate D2E/DX2                !
 ! A3    A(5,1,30)             117.8264         estimate D2E/DX2                !
 ! A4    A(1,2,3)              124.9299         estimate D2E/DX2                !
 ! A5    A(1,2,31)             118.3519         estimate D2E/DX2                !
 ! A6    A(3,2,31)             116.7182         estimate D2E/DX2                !
 ! A7    A(2,3,4)              122.908          estimate D2E/DX2                !
 ! A8    A(2,3,32)             118.6459         estimate D2E/DX2                !
 ! A9    A(4,3,32)             118.4461         estimate D2E/DX2                !
 ! A10   A(3,4,16)             125.1897         estimate D2E/DX2                !
 ! A11   A(3,4,33)             117.294          estimate D2E/DX2                !
 ! A12   A(16,4,33)            117.5163         estimate D2E/DX2                !
 ! A13   A(1,5,6)              123.697          estimate D2E/DX2                !
 ! A14   A(1,5,9)              125.5553         estimate D2E/DX2                !
 ! A15   A(6,5,9)              110.7474         estimate D2E/DX2                !
 ! A16   A(5,6,7)               91.1641         estimate D2E/DX2                !
 ! A17   A(6,7,8)              110.5765         estimate D2E/DX2                !
 ! A18   A(6,7,10)             127.8895         estimate D2E/DX2                !
 ! A19   A(8,7,10)             121.5337         estimate D2E/DX2                !
 ! A20   A(7,8,9)              112.5328         estimate D2E/DX2                !
 ! A21   A(7,8,13)             120.094          estimate D2E/DX2                !
 ! A22   A(9,8,13)             127.3731         estimate D2E/DX2                !
 ! A23   A(5,9,8)              114.9494         estimate D2E/DX2                !
 ! A24   A(5,9,14)             123.0192         estimate D2E/DX2                !
 ! A25   A(8,9,14)             122.0079         estimate D2E/DX2                !
 ! A26   A(7,10,11)            118.1792         estimate D2E/DX2                !
 ! A27   A(7,10,34)            120.8971         estimate D2E/DX2                !
 ! A28   A(11,10,34)           120.9236         estimate D2E/DX2                !
 ! A29   A(10,11,12)           120.5683         estimate D2E/DX2                !
 ! A30   A(10,11,35)           119.5282         estimate D2E/DX2                !
 ! A31   A(12,11,35)           119.9032         estimate D2E/DX2                !
 ! A32   A(11,12,13)           121.2703         estimate D2E/DX2                !
 ! A33   A(11,12,36)           119.679          estimate D2E/DX2                !
 ! A34   A(13,12,36)           119.0505         estimate D2E/DX2                !
 ! A35   A(8,13,12)            118.3517         estimate D2E/DX2                !
 ! A36   A(8,13,37)            121.4836         estimate D2E/DX2                !
 ! A37   A(12,13,37)           120.1629         estimate D2E/DX2                !
 ! A38   A(9,14,15)            112.9032         estimate D2E/DX2                !
 ! A39   A(9,14,38)            106.8913         estimate D2E/DX2                !
 ! A40   A(9,14,39)            107.7117         estimate D2E/DX2                !
 ! A41   A(15,14,38)           111.2044         estimate D2E/DX2                !
 ! A42   A(15,14,39)           111.5264         estimate D2E/DX2                !
 ! A43   A(38,14,39)           106.2527         estimate D2E/DX2                !
 ! A44   A(14,15,40)           109.6547         estimate D2E/DX2                !
 ! A45   A(14,15,41)           111.2321         estimate D2E/DX2                !
 ! A46   A(14,15,42)           111.1314         estimate D2E/DX2                !
 ! A47   A(40,15,41)           108.2971         estimate D2E/DX2                !
 ! A48   A(40,15,42)           108.2317         estimate D2E/DX2                !
 ! A49   A(41,15,42)           108.1971         estimate D2E/DX2                !
 ! A50   A(4,16,17)            123.0359         estimate D2E/DX2                !
 ! A51   A(4,16,43)            118.4876         estimate D2E/DX2                !
 ! A52   A(17,16,43)           118.4764         estimate D2E/DX2                !
 ! A53   A(16,17,18)           123.3469         estimate D2E/DX2                !
 ! A54   A(16,17,44)           116.3051         estimate D2E/DX2                !
 ! A55   A(18,17,44)           120.3106         estimate D2E/DX2                !
 ! A56   A(17,18,19)           131.0146         estimate D2E/DX2                !
 ! A57   A(17,18,45)           115.5868         estimate D2E/DX2                !
 ! A58   A(19,18,45)           113.3144         estimate D2E/DX2                !
 ! A59   A(18,19,20)           117.943          estimate D2E/DX2                !
 ! A60   A(18,19,23)           131.4149         estimate D2E/DX2                !
 ! A61   A(20,19,23)           110.6398         estimate D2E/DX2                !
 ! A62   A(19,20,21)            91.5258         estimate D2E/DX2                !
 ! A63   A(20,21,22)           110.327          estimate D2E/DX2                !
 ! A64   A(20,21,24)           128.2052         estimate D2E/DX2                !
 ! A65   A(22,21,24)           121.4677         estimate D2E/DX2                !
 ! A66   A(21,22,23)           112.7889         estimate D2E/DX2                !
 ! A67   A(21,22,27)           120.1305         estimate D2E/DX2                !
 ! A68   A(23,22,27)           127.0769         estimate D2E/DX2                !
 ! A69   A(19,23,22)           114.6871         estimate D2E/DX2                !
 ! A70   A(19,23,28)           124.4214         estimate D2E/DX2                !
 ! A71   A(22,23,28)           120.7068         estimate D2E/DX2                !
 ! A72   A(21,24,25)           118.201          estimate D2E/DX2                !
 ! A73   A(21,24,46)           120.8386         estimate D2E/DX2                !
 ! A74   A(25,24,46)           120.9604         estimate D2E/DX2                !
 ! A75   A(24,25,26)           120.5893         estimate D2E/DX2                !
 ! A76   A(24,25,47)           119.538          estimate D2E/DX2                !
 ! A77   A(26,25,47)           119.8724         estimate D2E/DX2                !
 ! A78   A(25,26,27)           121.2652         estimate D2E/DX2                !
 ! A79   A(25,26,48)           119.6746         estimate D2E/DX2                !
 ! A80   A(27,26,48)           119.0599         estimate D2E/DX2                !
 ! A81   A(22,27,26)           118.345          estimate D2E/DX2                !
 ! A82   A(22,27,49)           121.505          estimate D2E/DX2                !
 ! A83   A(26,27,49)           120.1477         estimate D2E/DX2                !
 ! A84   A(23,28,29)           113.2964         estimate D2E/DX2                !
 ! A85   A(23,28,50)           107.3372         estimate D2E/DX2                !
 ! A86   A(23,28,51)           106.6922         estimate D2E/DX2                !
 ! A87   A(29,28,50)           112.0298         estimate D2E/DX2                !
 ! A88   A(29,28,51)           110.6612         estimate D2E/DX2                !
 ! A89   A(50,28,51)           106.4373         estimate D2E/DX2                !
 ! A90   A(28,29,52)           111.723          estimate D2E/DX2                !
 ! A91   A(28,29,53)           109.6127         estimate D2E/DX2                !
 ! A92   A(28,29,54)           111.1272         estimate D2E/DX2                !
 ! A93   A(52,29,53)           108.4018         estimate D2E/DX2                !
 ! A94   A(52,29,54)           107.7573         estimate D2E/DX2                !
 ! A95   A(53,29,54)           108.104          estimate D2E/DX2                !
 ! D1    D(5,1,2,3)            179.7042         estimate D2E/DX2                !
 ! D2    D(5,1,2,31)            -0.3205         estimate D2E/DX2                !
 ! D3    D(30,1,2,3)             0.3258         estimate D2E/DX2                !
 ! D4    D(30,1,2,31)         -179.699          estimate D2E/DX2                !
 ! D5    D(2,1,5,6)             -1.8544         estimate D2E/DX2                !
 ! D6    D(2,1,5,9)            178.3868         estimate D2E/DX2                !
 ! D7    D(30,1,5,6)           177.5238         estimate D2E/DX2                !
 ! D8    D(30,1,5,9)            -2.235          estimate D2E/DX2                !
 ! D9    D(1,2,3,4)           -179.9762         estimate D2E/DX2                !
 ! D10   D(1,2,3,32)             0.1023         estimate D2E/DX2                !
 ! D11   D(31,2,3,4)             0.0482         estimate D2E/DX2                !
 ! D12   D(31,2,3,32)         -179.8733         estimate D2E/DX2                !
 ! D13   D(2,3,4,16)          -179.9643         estimate D2E/DX2                !
 ! D14   D(2,3,4,33)             0.0657         estimate D2E/DX2                !
 ! D15   D(32,3,4,16)           -0.0426         estimate D2E/DX2                !
 ! D16   D(32,3,4,33)          179.9874         estimate D2E/DX2                !
 ! D17   D(3,4,16,17)          179.9871         estimate D2E/DX2                !
 ! D18   D(3,4,16,43)            0.0661         estimate D2E/DX2                !
 ! D19   D(33,4,16,17)          -0.0429         estimate D2E/DX2                !
 ! D20   D(33,4,16,43)        -179.964          estimate D2E/DX2                !
 ! D21   D(1,5,6,7)           -178.7282         estimate D2E/DX2                !
 ! D22   D(9,5,6,7)              1.062          estimate D2E/DX2                !
 ! D23   D(1,5,9,8)            177.9497         estimate D2E/DX2                !
 ! D24   D(1,5,9,14)            -0.3161         estimate D2E/DX2                !
 ! D25   D(6,5,9,8)             -1.8357         estimate D2E/DX2                !
 ! D26   D(6,5,9,14)           179.8985         estimate D2E/DX2                !
 ! D27   D(5,6,7,8)             -0.0676         estimate D2E/DX2                !
 ! D28   D(5,6,7,10)           179.7375         estimate D2E/DX2                !
 ! D29   D(6,7,8,9)             -0.9288         estimate D2E/DX2                !
 ! D30   D(6,7,8,13)           179.1874         estimate D2E/DX2                !
 ! D31   D(10,7,8,9)           179.2517         estimate D2E/DX2                !
 ! D32   D(10,7,8,13)           -0.6321         estimate D2E/DX2                !
 ! D33   D(6,7,10,11)         -179.5089         estimate D2E/DX2                !
 ! D34   D(6,7,10,34)            0.3917         estimate D2E/DX2                !
 ! D35   D(8,7,10,11)            0.277          estimate D2E/DX2                !
 ! D36   D(8,7,10,34)         -179.8224         estimate D2E/DX2                !
 ! D37   D(7,8,9,5)              1.8228         estimate D2E/DX2                !
 ! D38   D(7,8,9,14)          -179.892          estimate D2E/DX2                !
 ! D39   D(13,8,9,5)          -178.3037         estimate D2E/DX2                !
 ! D40   D(13,8,9,14)           -0.0185         estimate D2E/DX2                !
 ! D41   D(7,8,13,12)            0.5577         estimate D2E/DX2                !
 ! D42   D(7,8,13,37)         -178.9531         estimate D2E/DX2                !
 ! D43   D(9,8,13,12)         -179.3072         estimate D2E/DX2                !
 ! D44   D(9,8,13,37)            1.182          estimate D2E/DX2                !
 ! D45   D(5,9,14,15)           88.1761         estimate D2E/DX2                !
 ! D46   D(5,9,14,38)         -149.2325         estimate D2E/DX2                !
 ! D47   D(5,9,14,39)          -35.4025         estimate D2E/DX2                !
 ! D48   D(8,9,14,15)          -89.9696         estimate D2E/DX2                !
 ! D49   D(8,9,14,38)           32.6218         estimate D2E/DX2                !
 ! D50   D(8,9,14,39)          146.4519         estimate D2E/DX2                !
 ! D51   D(7,10,11,12)           0.1321         estimate D2E/DX2                !
 ! D52   D(7,10,11,35)         179.9236         estimate D2E/DX2                !
 ! D53   D(34,10,11,12)       -179.7685         estimate D2E/DX2                !
 ! D54   D(34,10,11,35)          0.023          estimate D2E/DX2                !
 ! D55   D(10,11,12,13)         -0.1923         estimate D2E/DX2                !
 ! D56   D(10,11,12,36)        179.6284         estimate D2E/DX2                !
 ! D57   D(35,11,12,13)       -179.983          estimate D2E/DX2                !
 ! D58   D(35,11,12,36)         -0.1623         estimate D2E/DX2                !
 ! D59   D(11,12,13,8)          -0.1564         estimate D2E/DX2                !
 ! D60   D(11,12,13,37)        179.3611         estimate D2E/DX2                !
 ! D61   D(36,12,13,8)        -179.9782         estimate D2E/DX2                !
 ! D62   D(36,12,13,37)         -0.4607         estimate D2E/DX2                !
 ! D63   D(9,14,15,40)         179.4146         estimate D2E/DX2                !
 ! D64   D(9,14,15,41)         -60.8228         estimate D2E/DX2                !
 ! D65   D(9,14,15,42)          59.7972         estimate D2E/DX2                !
 ! D66   D(38,14,15,40)         59.2665         estimate D2E/DX2                !
 ! D67   D(38,14,15,41)        179.0291         estimate D2E/DX2                !
 ! D68   D(38,14,15,42)        -60.3509         estimate D2E/DX2                !
 ! D69   D(39,14,15,40)        -59.1408         estimate D2E/DX2                !
 ! D70   D(39,14,15,41)         60.6217         estimate D2E/DX2                !
 ! D71   D(39,14,15,42)       -178.7583         estimate D2E/DX2                !
 ! D72   D(4,16,17,18)        -178.0312         estimate D2E/DX2                !
 ! D73   D(4,16,17,44)          -0.2551         estimate D2E/DX2                !
 ! D74   D(43,16,17,18)          1.8899         estimate D2E/DX2                !
 ! D75   D(43,16,17,44)        179.666          estimate D2E/DX2                !
 ! D76   D(16,17,18,19)        179.7364         estimate D2E/DX2                !
 ! D77   D(16,17,18,45)          3.3451         estimate D2E/DX2                !
 ! D78   D(44,17,18,19)          2.0457         estimate D2E/DX2                !
 ! D79   D(44,17,18,45)       -174.3456         estimate D2E/DX2                !
 ! D80   D(17,18,19,20)       -167.4318         estimate D2E/DX2                !
 ! D81   D(17,18,19,23)         13.1754         estimate D2E/DX2                !
 ! D82   D(45,18,19,20)          9.024          estimate D2E/DX2                !
 ! D83   D(45,18,19,23)       -170.3688         estimate D2E/DX2                !
 ! D84   D(18,19,20,21)        179.5825         estimate D2E/DX2                !
 ! D85   D(23,19,20,21)         -0.9041         estimate D2E/DX2                !
 ! D86   D(18,19,23,22)       -178.7919         estimate D2E/DX2                !
 ! D87   D(18,19,23,28)          6.1347         estimate D2E/DX2                !
 ! D88   D(20,19,23,22)          1.7813         estimate D2E/DX2                !
 ! D89   D(20,19,23,28)       -173.2922         estimate D2E/DX2                !
 ! D90   D(19,20,21,22)         -0.1635         estimate D2E/DX2                !
 ! D91   D(19,20,21,24)        179.9368         estimate D2E/DX2                !
 ! D92   D(20,21,22,23)          1.1791         estimate D2E/DX2                !
 ! D93   D(20,21,22,27)       -179.474          estimate D2E/DX2                !
 ! D94   D(24,21,22,23)       -178.9133         estimate D2E/DX2                !
 ! D95   D(24,21,22,27)          0.4336         estimate D2E/DX2                !
 ! D96   D(20,21,24,25)        179.6807         estimate D2E/DX2                !
 ! D97   D(20,21,24,46)         -0.2998         estimate D2E/DX2                !
 ! D98   D(22,21,24,25)         -0.209          estimate D2E/DX2                !
 ! D99   D(22,21,24,46)        179.8105         estimate D2E/DX2                !
 ! D100  D(21,22,23,19)         -1.9558         estimate D2E/DX2                !
 ! D101  D(21,22,23,28)        173.318          estimate D2E/DX2                !
 ! D102  D(27,22,23,19)        178.7521         estimate D2E/DX2                !
 ! D103  D(27,22,23,28)         -5.9741         estimate D2E/DX2                !
 ! D104  D(21,22,27,26)         -0.3815         estimate D2E/DX2                !
 ! D105  D(21,22,27,49)        179.0547         estimate D2E/DX2                !
 ! D106  D(23,22,27,26)        178.8638         estimate D2E/DX2                !
 ! D107  D(23,22,27,49)         -1.7            estimate D2E/DX2                !
 ! D108  D(19,23,28,29)        -96.6436         estimate D2E/DX2                !
 ! D109  D(19,23,28,50)         27.5673         estimate D2E/DX2                !
 ! D110  D(19,23,28,51)        141.3386         estimate D2E/DX2                !
 ! D111  D(22,23,28,29)         88.5633         estimate D2E/DX2                !
 ! D112  D(22,23,28,50)       -147.2257         estimate D2E/DX2                !
 ! D113  D(22,23,28,51)        -33.4545         estimate D2E/DX2                !
 ! D114  D(21,24,25,26)         -0.0536         estimate D2E/DX2                !
 ! D115  D(21,24,25,47)       -179.8801         estimate D2E/DX2                !
 ! D116  D(46,24,25,26)        179.9269         estimate D2E/DX2                !
 ! D117  D(46,24,25,47)          0.1004         estimate D2E/DX2                !
 ! D118  D(24,25,26,27)          0.0951         estimate D2E/DX2                !
 ! D119  D(24,25,26,48)       -179.6857         estimate D2E/DX2                !
 ! D120  D(47,25,26,27)        179.921          estimate D2E/DX2                !
 ! D121  D(47,25,26,48)          0.1402         estimate D2E/DX2                !
 ! D122  D(25,26,27,22)          0.1242         estimate D2E/DX2                !
 ! D123  D(25,26,27,49)       -179.3199         estimate D2E/DX2                !
 ! D124  D(48,26,27,22)        179.9063         estimate D2E/DX2                !
 ! D125  D(48,26,27,49)          0.4622         estimate D2E/DX2                !
 ! D126  D(23,28,29,52)         60.2888         estimate D2E/DX2                !
 ! D127  D(23,28,29,53)       -179.532          estimate D2E/DX2                !
 ! D128  D(23,28,29,54)        -60.1029         estimate D2E/DX2                !
 ! D129  D(50,28,29,52)        -61.3278         estimate D2E/DX2                !
 ! D130  D(50,28,29,53)         58.8515         estimate D2E/DX2                !
 ! D131  D(50,28,29,54)        178.2805         estimate D2E/DX2                !
 ! D132  D(51,28,29,52)       -179.9361         estimate D2E/DX2                !
 ! D133  D(51,28,29,53)        -59.7568         estimate D2E/DX2                !
 ! D134  D(51,28,29,54)         59.6722         estimate D2E/DX2                !
 --------------------------------------------------------------------------------
 Trust Radius=3.00D-01 FncErr=1.00D-07 GrdErr=1.00D-06 EigMax=2.50D+02 EigMin=1.00D-04
 Number of steps in this run=    296 maximum allowed number of steps=    324.
 GradGradGradGradGradGradGradGradGradGradGradGradGradGradGradGradGradGrad

 Stoichiometry    C25H25N2S2(1+)
 Framework group  C1[X(C25H25N2S2)]
 Deg. of freedom   156
 Full point group                 C1      NOp   1
 Largest Abelian subgroup         C1      NOp   1
 Largest concise Abelian subgroup C1      NOp   1
                         Standard orientation:                         
 ---------------------------------------------------------------------
 Center     Atomic      Atomic             Coordinates (Angstroms)
 Number     Number       Type             X           Y           Z
 ---------------------------------------------------------------------
      1          6           0       -3.663712   -1.051948   -0.111557
      2          6           0       -2.389638   -0.479979   -0.083458
      3          6           0       -1.194967   -1.195004   -0.064041
      4          6           0        0.058349   -0.578322   -0.035613
      5          6           0       -4.855344   -0.323764   -0.124892
      6         16           0       -4.926662    1.436711   -0.060618
      7          6           0       -6.688233    1.402029   -0.083292
      8          6           0       -7.154955    0.079357   -0.139452
      9          7           0       -6.111858   -0.857268   -0.183590
     10          6           0       -7.565153    2.482703   -0.048916
     11          6           0       -8.934956    2.220220   -0.065794
     12          6           0       -9.407072    0.902760   -0.113224
     13          6           0       -8.529361   -0.179533   -0.148820
     14          6           0       -6.366284   -2.306872   -0.248314
     15          6           0       -6.467137   -2.955883    1.133259
     16          6           0        1.282162   -1.246091   -0.016052
     17          6           0        2.511127   -0.582889    0.011938
     18          6           0        3.741215   -1.244345   -0.008435
     19          6           0        5.052439   -0.749020    0.008808
     20         16           0        6.362590   -1.866987   -0.365292
     21          6           0        7.562983   -0.600806   -0.165520
     22          6           0        6.941017    0.612357    0.169846
     23          7           0        5.544832    0.495298    0.283261
     24          6           0        8.946272   -0.695535   -0.302110
     25          6           0        9.708364    0.454142   -0.100703
     26          6           0        9.092982    1.668657    0.228770
     27          6           0        7.709445    1.764545    0.366500
     28          6           0        4.732809    1.623027    0.770139
     29          6           0        4.282282    2.569892   -0.344236
     30          1           0       -3.731831   -2.134826   -0.113428
     31          1           0       -2.310249    0.607987   -0.076294
     32          1           0       -1.237617   -2.283434   -0.072611
     33          1           0        0.079156    0.512977   -0.027655
     34          1           0       -7.192939    3.501353   -0.008437
     35          1           0       -9.638205    3.046285   -0.038434
     36          1           0      -10.476042    0.714855   -0.119701
     37          1           0       -8.914544   -1.192671   -0.174894
     38          1           0       -7.289207   -2.442036   -0.816617
     39          1           0       -5.570728   -2.757498   -0.845647
     40          1           0       -6.666359   -4.026758    1.023381
     41          1           0       -5.536643   -2.835556    1.696522
     42          1           0       -7.280055   -2.514652    1.717995
     43          1           0        1.279871   -2.335280   -0.024232
     44          1           0        2.472390    0.502280    0.013643
     45          1           0        3.691082   -2.326769   -0.105404
     46          1           0        9.416627   -1.639291   -0.558710
     47          1           0       10.787594    0.405440   -0.203502
     48          1           0        9.700309    2.555856    0.377290
     49          1           0        7.251286    2.716142    0.611187
     50          1           0        3.887111    1.202637    1.316886
     51          1           0        5.342782    2.154926    1.505154
     52          1           0        3.668719    2.054906   -1.089954
     53          1           0        3.692500    3.387191    0.083941
     54          1           0        5.141488    3.005946   -0.862588
 ---------------------------------------------------------------------
 Rotational constants (GHZ):           0.5052897           0.0306476           0.0290656
 Standard basis: 6-31G(d) (6D, 7F)
 There are   493 symmetry adapted cartesian basis functions of A   symmetry.
 There are   493 symmetry adapted basis functions of A   symmetry.
   493 basis functions,   960 primitive gaussians,   493 cartesian basis functions
   110 alpha electrons      110 beta electrons
       nuclear repulsion energy      2585.8618479399 Hartrees.
 NAtoms=   54 NActive=   54 NUniq=   54 SFac= 1.00D+00 NAtFMM=   60 NAOKFM=F Big=F
 Integral buffers will be    131072 words long.
 Raffenetti 2 integral format.
 Two-electron integral symmetry is turned on.
 ------------------------------------------------------------------------------
 Polarizable Continuum Model (PCM)
 =================================
 Model                : PCM.
 Atomic radii         : SMD-Coulomb.
 Polarization charges : Total charges.
 Charge compensation  : None.
 Solution method      : On-the-fly selection.
 Cavity type          : VdW (van der Waals Surface) (Alpha=1.000).
 Cavity algorithm     : GePol (No added spheres)
                        Default sphere list used, NSphG=   54.
                        Lebedev-Laikov grids with approx.  5.0 points / Ang**2.
                        Smoothing algorithm: York/Karplus (Gamma=1.0000).
                        Polarization charges: spherical gaussians, with
                                              point-specific exponents (IZeta= 3).
                        Self-potential: point-specific (ISelfS= 7).
                        Self-field    : sphere-specific E.n sum rule (ISelfD= 2).
 1st derivatives      : Analytical E(r).r(x)/FMM algorithm (CHGder, D1EAlg=3).
                        Cavity 1st derivative terms included.
 Solvent              : Ethanol, Eps=  24.852000 Eps(inf)=   1.852593
 ------------------------------------------------------------------------------
 ------------------------------------------------------------------------------
 Atomic radii for non-electrostatic terms: SMD-CDS.
 ------------------------------------------------------------------------------
 Nuclear repulsion after PCM non-electrostatic terms =     2585.8550298034 Hartrees.
 One-electron integrals computed using PRISM.
 NBasis=   493 RedAO= T EigKep=  4.50D-04  NBF=   493
 NBsUse=   493 1.00D-06 EigRej= -1.00D+00 NBFU=   493
 ExpMin= 1.17D-01 ExpMax= 2.19D+04 ExpMxC= 3.30D+03 IAcc=3 IRadAn=         5 AccDes= 0.00D+00
 Harris functional with IExCor=  402 and IRadAn=       5 diagonalized for initial guess.
 HarFok:  IExCor=  402 AccDes= 0.00D+00 IRadAn=         5 IDoV= 1 UseB2=F ITyADJ=14
 ICtDFT=  3500011 ScaDFX=  1.000000  1.000000  1.000000  1.000000
 FoFCou: FMM=F IPFlag=           0 FMFlag=      100000 FMFlg1=           0
         NFxFlg=           0 DoJE=T BraDBF=F KetDBF=T FulRan=T
         wScrn=  0.000000 ICntrl=       500 IOpCl=  0 I1Cent=   200000004 NGrid=           0
         NMat0=    1 NMatS0=      1 NMatT0=    0 NMatD0=    1 NMtDS0=    0 NMtDT0=    0
 Petite list used in FoFCou.
 Requested convergence on RMS density matrix=1.00D-08 within 128 cycles.
 Requested convergence on MAX density matrix=1.00D-06.
 Requested convergence on             energy=1.00D-06.
 No special actions if energy rises.
 Inv3:  Mode=1 IEnd=    53425200.
 Iteration    1 A*A^-1 deviation from unit magnitude is 3.55D-15 for    321.
 Iteration    1 A*A^-1 deviation from orthogonality  is 2.16D-15 for   3710   2923.
 Iteration    1 A^-1*A deviation from unit magnitude is 3.55D-15 for    321.
 Iteration    1 A^-1*A deviation from orthogonality  is 4.12D-15 for    636    388.
 Error on total polarization charges =  0.05529
 SCF Done:  E(RB3LYP) =  -1873.47069666     A.U. after   13 cycles
            NFock= 13  Conv=0.87D-08     -V/T= 2.0071
 SMD-CDS (non-electrostatic) energy       (kcal/mol) =      -4.28
 (included in total energy above)

 **********************************************************************

            Population analysis using the SCF Density.

 **********************************************************************

 Orbital symmetries:
       Occupied  (A) (A) (A) (A) (A) (A) (A) (A) (A) (A) (A) (A)
                 (A) (A) (A) (A) (A) (A) (A) (A) (A) (A) (A) (A)
                 (A) (A) (A) (A) (A) (A) (A) (A) (A) (A) (A) (A)
                 (A) (A) (A) (A) (A) (A) (A) (A) (A) (A) (A) (A)
                 (A) (A) (A) (A) (A) (A) (A) (A) (A) (A) (A) (A)
                 (A) (A) (A) (A) (A) (A) (A) (A) (A) (A) (A) (A)
                 (A) (A) (A) (A) (A) (A) (A) (A) (A) (A) (A) (A)
                 (A) (A) (A) (A) (A) (A) (A) (A) (A) (A) (A) (A)
                 (A) (A) (A) (A) (A) (A) (A) (A) (A) (A) (A) (A)
                 (A) (A)
       Virtual   (A) (A) (A) (A) (A) (A) (A) (A) (A) (A) (A) (A)
                 (A) (A) (A) (A) (A) (A) (A) (A) (A) (A) (A) (A)
                 (A) (A) (A) (A) (A) (A) (A) (A) (A) (A) (A) (A)
                 (A) (A) (A) (A) (A) (A) (A) (A) (A) (A) (A) (A)
                 (A) (A) (A) (A) (A) (A) (A) (A) (A) (A) (A) (A)
                 (A) (A) (A) (A) (A) (A) (A) (A) (A) (A) (A) (A)
                 (A) (A) (A) (A) (A) (A) (A) (A) (A) (A) (A) (A)
                 (A) (A) (A) (A) (A) (A) (A) (A) (A) (A) (A) (A)
                 (A) (A) (A) (A) (A) (A) (A) (A) (A) (A) (A) (A)
                 (A) (A) (A) (A) (A) (A) (A) (A) (A) (A) (A) (A)
                 (A) (A) (A) (A) (A) (A) (A) (A) (A) (A) (A) (A)
                 (A) (A) (A) (A) (A) (A) (A) (A) (A) (A) (A) (A)
                 (A) (A) (A) (A) (A) (A) (A) (A) (A) (A) (A) (A)
                 (A) (A) (A) (A) (A) (A) (A) (A) (A) (A) (A) (A)
                 (A) (A) (A) (A) (A) (A) (A) (A) (A) (A) (A) (A)
                 (A) (A) (A) (A) (A) (A) (A) (A) (A) (A) (A) (A)
                 (A) (A) (A) (A) (A) (A) (A) (A) (A) (A) (A) (A)
                 (A) (A) (A) (A) (A) (A) (A) (A) (A) (A) (A) (A)
                 (A) (A) (A) (A) (A) (A) (A) (A) (A) (A) (A) (A)
                 (A) (A) (A) (A) (A) (A) (A) (A) (A) (A) (A) (A)
                 (A) (A) (A) (A) (A) (A) (A) (A) (A) (A) (A) (A)
                 (A) (A) (A) (A) (A) (A) (A) (A) (A) (A) (A) (A)
                 (A) (A) (A) (A) (A) (A) (A) (A) (A) (A) (A) (A)
                 (A) (A) (A) (A) (A) (A) (A) (A) (A) (A) (A) (A)
                 (A) (A) (A) (A) (A) (A) (A) (A) (A) (A) (A) (A)
                 (A) (A) (A) (A) (A) (A) (A) (A) (A) (A) (A) (A)
                 (A) (A) (A) (A) (A) (A) (A) (A) (A) (A) (A) (A)
                 (A) (A) (A) (A) (A) (A) (A) (A) (A) (A) (A) (A)
                 (A) (A) (A) (A) (A) (A) (A) (A) (A) (A) (A) (A)
                 (A) (A) (A) (A) (A) (A) (A) (A) (A) (A) (A) (A)
                 (A) (A) (A) (A) (A) (A) (A) (A) (A) (A) (A) (A)
                 (A) (A) (A) (A) (A) (A) (A) (A) (A) (A) (A)
 The electronic state is 1-A.
 Alpha  occ. eigenvalues --  -88.93061 -88.92891 -14.41993 -14.41671 -10.29599
 Alpha  occ. eigenvalues --  -10.29222 -10.25489 -10.25366 -10.24166 -10.24069
 Alpha  occ. eigenvalues --  -10.23601 -10.23460 -10.21566 -10.21557 -10.20903
 Alpha  occ. eigenvalues --  -10.20877 -10.20823 -10.20642 -10.20539 -10.20398
 Alpha  occ. eigenvalues --  -10.20138 -10.20041 -10.20004 -10.19955 -10.19843
 Alpha  occ. eigenvalues --  -10.19122 -10.19096 -10.18258 -10.18137  -7.99197
 Alpha  occ. eigenvalues --   -7.99023  -5.95644  -5.95477  -5.95279  -5.95111
 Alpha  occ. eigenvalues --   -5.94793  -5.94606  -1.01677  -1.01545  -0.87574
 Alpha  occ. eigenvalues --   -0.87461  -0.84907  -0.84707  -0.83018  -0.81243
 Alpha  occ. eigenvalues --   -0.78978  -0.77419  -0.77138  -0.76315  -0.74914
 Alpha  occ. eigenvalues --   -0.74529  -0.73225  -0.70163  -0.66504  -0.65834
 Alpha  occ. eigenvalues --   -0.65683  -0.63445  -0.62650  -0.61308  -0.60568
 Alpha  occ. eigenvalues --   -0.58718  -0.57089  -0.56416  -0.55959  -0.52642
 Alpha  occ. eigenvalues --   -0.52531  -0.52338  -0.50602  -0.50171  -0.48510
 Alpha  occ. eigenvalues --   -0.47242  -0.47071  -0.46976  -0.46328  -0.46277
 Alpha  occ. eigenvalues --   -0.45757  -0.45357  -0.44546  -0.43753  -0.43446
 Alpha  occ. eigenvalues --   -0.43001  -0.42012  -0.40556  -0.40427  -0.39918
 Alpha  occ. eigenvalues --   -0.39667  -0.39150  -0.38983  -0.38031  -0.37811
 Alpha  occ. eigenvalues --   -0.37230  -0.37164  -0.37015  -0.36829  -0.36371
 Alpha  occ. eigenvalues --   -0.35983  -0.35608  -0.35527  -0.35282  -0.35077
 Alpha  occ. eigenvalues --   -0.34644  -0.31903  -0.31701  -0.31480  -0.28597
 Alpha  occ. eigenvalues --   -0.26182  -0.25046  -0.24936  -0.22920  -0.17813
 Alpha virt. eigenvalues --   -0.10053  -0.03863  -0.01723  -0.01662  -0.00707
 Alpha virt. eigenvalues --   -0.00527  -0.00192   0.00272   0.03372   0.06706
 Alpha virt. eigenvalues --    0.06957   0.07705   0.08886   0.09413   0.09656
 Alpha virt. eigenvalues --    0.10863   0.11306   0.11770   0.12594   0.13283
 Alpha virt. eigenvalues --    0.13519   0.13867   0.14175   0.14679   0.15235
 Alpha virt. eigenvalues --    0.15532   0.15796   0.15941   0.16094   0.16282
 Alpha virt. eigenvalues --    0.16543   0.16981   0.17296   0.18074   0.18242
 Alpha virt. eigenvalues --    0.18620   0.19394   0.19531   0.19732   0.20325
 Alpha virt. eigenvalues --    0.20601   0.21153   0.21588   0.22545   0.22940
 Alpha virt. eigenvalues --    0.23181   0.24191   0.25439   0.26170   0.26586
 Alpha virt. eigenvalues --    0.26979   0.27694   0.28910   0.30405   0.31118
 Alpha virt. eigenvalues --    0.32316   0.33008   0.33339   0.34395   0.34524
 Alpha virt. eigenvalues --    0.35031   0.35410   0.35881   0.36475   0.37772
 Alpha virt. eigenvalues --    0.38506   0.39137   0.39474   0.40194   0.41339
 Alpha virt. eigenvalues --    0.43923   0.45134   0.47812   0.48358   0.48687
 Alpha virt. eigenvalues --    0.49202   0.49383   0.50105   0.50850   0.51040
 Alpha virt. eigenvalues --    0.51544   0.52331   0.52663   0.53558   0.53614
 Alpha virt. eigenvalues --    0.53982   0.54931   0.55228   0.55605   0.56367
 Alpha virt. eigenvalues --    0.56737   0.57046   0.57426   0.57778   0.57877
 Alpha virt. eigenvalues --    0.58185   0.58240   0.58381   0.58677   0.59259
 Alpha virt. eigenvalues --    0.59737   0.59838   0.60198   0.60401   0.60584
 Alpha virt. eigenvalues --    0.60657   0.60710   0.61214   0.61824   0.62003
 Alpha virt. eigenvalues --    0.63017   0.63432   0.64000   0.64212   0.64782
 Alpha virt. eigenvalues --    0.65933   0.66234   0.66427   0.68691   0.69535
 Alpha virt. eigenvalues --    0.71166   0.71457   0.71636   0.72135   0.73269
 Alpha virt. eigenvalues --    0.74159   0.75630   0.75705   0.77172   0.77872
 Alpha virt. eigenvalues --    0.80069   0.81028   0.81565   0.81860   0.82408
 Alpha virt. eigenvalues --    0.82746   0.83012   0.83600   0.84006   0.84689
 Alpha virt. eigenvalues --    0.85042   0.85385   0.86406   0.86664   0.87016
 Alpha virt. eigenvalues --    0.87398   0.87952   0.88088   0.88525   0.89081
 Alpha virt. eigenvalues --    0.89107   0.89388   0.89679   0.90169   0.90816
 Alpha virt. eigenvalues --    0.91034   0.91170   0.92061   0.92195   0.93405
 Alpha virt. eigenvalues --    0.93648   0.94901   0.95064   0.95999   0.96309
 Alpha virt. eigenvalues --    0.96822   0.97385   0.98010   0.98638   0.98845
 Alpha virt. eigenvalues --    0.99279   0.99954   1.00381   1.00508   1.01150
 Alpha virt. eigenvalues --    1.01381   1.02767   1.03157   1.04129   1.04536
 Alpha virt. eigenvalues --    1.05134   1.05978   1.07119   1.08628   1.09337
 Alpha virt. eigenvalues --    1.10186   1.10571   1.11516   1.13411   1.14868
 Alpha virt. eigenvalues --    1.15735   1.18383   1.19084   1.19660   1.20638
 Alpha virt. eigenvalues --    1.21666   1.23095   1.23755   1.24626   1.25917
 Alpha virt. eigenvalues --    1.27692   1.29113   1.29818   1.30880   1.31300
 Alpha virt. eigenvalues --    1.32341   1.32830   1.34064   1.35903   1.37633
 Alpha virt. eigenvalues --    1.39108   1.39556   1.39861   1.40539   1.41058
 Alpha virt. eigenvalues --    1.41712   1.42189   1.42417   1.42612   1.46287
 Alpha virt. eigenvalues --    1.46570   1.47241   1.48397   1.48468   1.49222
 Alpha virt. eigenvalues --    1.50558   1.51711   1.53926   1.54545   1.54881
 Alpha virt. eigenvalues --    1.55393   1.55846   1.56477   1.57476   1.60361
 Alpha virt. eigenvalues --    1.63698   1.66200   1.67773   1.69327   1.70642
 Alpha virt. eigenvalues --    1.72352   1.76467   1.77640   1.78528   1.78750
 Alpha virt. eigenvalues --    1.81276   1.82701   1.83048   1.83982   1.84786
 Alpha virt. eigenvalues --    1.85218   1.85847   1.87223   1.87452   1.89034
 Alpha virt. eigenvalues --    1.89146   1.89810   1.90327   1.90954   1.91904
 Alpha virt. eigenvalues --    1.92763   1.93424   1.93927   1.94428   1.94815
 Alpha virt. eigenvalues --    1.95184   1.96755   1.97832   1.98233   2.00052
 Alpha virt. eigenvalues --    2.00859   2.01605   2.02297   2.04699   2.06056
 Alpha virt. eigenvalues --    2.07627   2.07935   2.08280   2.10934   2.12399
 Alpha virt. eigenvalues --    2.12746   2.13119   2.13415   2.13483   2.13864
 Alpha virt. eigenvalues --    2.16426   2.17279   2.18264   2.19210   2.19954
 Alpha virt. eigenvalues --    2.21313   2.21503   2.22156   2.23086   2.24013
 Alpha virt. eigenvalues --    2.27059   2.27449   2.28243   2.28627   2.28915
 Alpha virt. eigenvalues --    2.29374   2.30892   2.31666   2.32133   2.32880
 Alpha virt. eigenvalues --    2.34657   2.35057   2.36845   2.37749   2.39038
 Alpha virt. eigenvalues --    2.41901   2.44937   2.46149   2.47170   2.48374
 Alpha virt. eigenvalues --    2.48971   2.49173   2.50617   2.51103   2.53305
 Alpha virt. eigenvalues --    2.55387   2.57405   2.57582   2.59812   2.60858
 Alpha virt. eigenvalues --    2.61395   2.62608   2.65728   2.66323   2.67846
 Alpha virt. eigenvalues --    2.68487   2.69440   2.70975   2.72046   2.72698
 Alpha virt. eigenvalues --    2.75305   2.75493   2.78807   2.86132   2.86884
 Alpha virt. eigenvalues --    2.89157   2.90741   2.92348   2.93873   2.94469
 Alpha virt. eigenvalues --    2.97987   3.01570   3.08472   3.10097   3.15387
 Alpha virt. eigenvalues --    3.21234   3.21361   3.39604   3.39840   3.94104
 Alpha virt. eigenvalues --    3.94206   4.06227   4.06457   4.07468   4.07603
 Alpha virt. eigenvalues --    4.09086   4.09768   4.10928   4.11458   4.11855
 Alpha virt. eigenvalues --    4.13406   4.15596   4.18666   4.23506   4.27044
 Alpha virt. eigenvalues --    4.27705   4.30965   4.33816   4.35523   4.36818
 Alpha virt. eigenvalues --    4.38751   4.45130   4.47451   4.48442   4.54013
 Alpha virt. eigenvalues --    4.57692   4.70979   4.71231
          Condensed to atoms (all electrons):
 Mulliken charges:
               1
     1  C   -0.216259
     2  C   -0.127702
     3  C   -0.171072
     4  C   -0.126221
     5  C    0.129317
     6  S    0.277133
     7  C   -0.171262
     8  C    0.373032
     9  N   -0.516943
    10  C   -0.196213
    11  C   -0.137654
    12  C   -0.169406
    13  C   -0.168291
    14  C   -0.173446
    15  C   -0.461921
    16  C   -0.171768
    17  C   -0.100520
    18  C   -0.232688
    19  C    0.141639
    20  S    0.278535
    21  C   -0.169952
    22  C    0.369259
    23  N   -0.509820
    24  C   -0.194696
    25  C   -0.135873
    26  C   -0.169444
    27  C   -0.165143
    28  C   -0.181721
    29  C   -0.464793
    30  H    0.193733
    31  H    0.178549
    32  H    0.158902
    33  H    0.170986
    34  H    0.188913
    35  H    0.172534
    36  H    0.174831
    37  H    0.192079
    38  H    0.203982
    39  H    0.203853
    40  H    0.176000
    41  H    0.174817
    42  H    0.174564
    43  H    0.159017
    44  H    0.186690
    45  H    0.180808
    46  H    0.189714
    47  H    0.173811
    48  H    0.175961
    49  H    0.193963
    50  H    0.202949
    51  H    0.204508
    52  H    0.178954
    53  H    0.177085
    54  H    0.176689
 Sum of Mulliken charges =   1.00000
 Mulliken charges with hydrogens summed into heavy atoms:
               1
     1  C   -0.022525
     2  C    0.050847
     3  C   -0.012170
     4  C    0.044766
     5  C    0.129317
     6  S    0.277133
     7  C   -0.171262
     8  C    0.373032
     9  N   -0.516943
    10  C   -0.007300
    11  C    0.034880
    12  C    0.005426
    13  C    0.023788
    14  C    0.234389
    15  C    0.063460
    16  C   -0.012752
    17  C    0.086171
    18  C   -0.051881
    19  C    0.141639
    20  S    0.278535
    21  C   -0.169952
    22  C    0.369259
    23  N   -0.509820
    24  C   -0.004983
    25  C    0.037939
    26  C    0.006517
    27  C    0.028820
    28  C    0.225735
    29  C    0.067935
 Electronic spatial extent (au):  <R**2>=          33468.0149
 Charge=              1.0000 electrons
 Dipole moment (field-independent basis, Debye):
    X=             -1.0462    Y=              0.3376    Z=              0.6112  Tot=              1.2578
 Quadrupole moment (field-independent basis, Debye-Ang):
   XX=             39.6949   YY=           -146.4305   ZZ=           -189.5550
   XY=             26.6367   XZ=              5.0037   YZ=              4.6482
 Traceless Quadrupole moment (field-independent basis, Debye-Ang):
   XX=            138.4584   YY=            -47.6669   ZZ=            -90.7915
   XY=             26.6367   XZ=              5.0037   YZ=              4.6482
 Octapole moment (field-independent basis, Debye-Ang**2):
  XXX=            -92.4272  YYY=              8.4578  ZZZ=              4.5044  XYY=            -44.6039
  XXY=             31.6414  XXZ=             -6.6099  XZZ=              4.3024  YZZ=             -0.4936
  YYZ=              3.9933  XYZ=             21.6973
 Hexadecapole moment (field-independent basis, Debye-Ang**3):
 XXXX=         -26082.6886 YYYY=          -2464.0434 ZZZZ=           -359.0162 XXXY=            736.2841
 XXXZ=             22.3394 YYYX=            114.5995 YYYZ=             31.7428 ZZZX=              2.4109
 ZZZY=              4.3976 XXYY=          -6116.4596 XXZZ=          -7625.6379 YYZZ=           -534.8631
 XXYZ=            227.3181 YYXZ=             32.5011 ZZXY=             66.6511
 N-N= 2.585855029803D+03 E-N=-9.533763546458D+03  KE= 1.860203913179D+03
 D1PCM: PCM CHGder 1st derivatives, ID1Alg=3 FixD1E=F DoIter=F DoCFld=F I1PDM=0.
 Calling FoFJK, ICntrl=      2127 FMM=F ISym2X=0 I1Cent= 0 IOpClX= 0 NMat=1 NMatS=1 NMatT=0.
 ***** Axes restored to original set *****
 -------------------------------------------------------------------
 Center     Atomic                   Forces (Hartrees/Bohr)
 Number     Number              X              Y              Z
 -------------------------------------------------------------------
      1        6          -0.000112161   -0.001025065    0.000009495
      2        6          -0.001012380    0.002171084    0.000049438
      3        6          -0.000024179   -0.001804498   -0.000044998
      4        6           0.000394561    0.002574416    0.000012083
      5        6          -0.000263879   -0.002605133    0.000081791
      6       16           0.000178884    0.002000484    0.000069179
      7        6          -0.000842132    0.000275909    0.000007801
      8        6           0.002145137   -0.001282878   -0.000003807
      9        7          -0.000296084    0.001725121    0.000391914
     10        6           0.000666062    0.000647604    0.000009122
     11        6          -0.000437024    0.000060349   -0.000022494
     12        6           0.000349547    0.000250689    0.000018367
     13        6          -0.000754289   -0.000853501    0.000093787
     14        6          -0.000159058   -0.002731625   -0.000241946
     15        6           0.000359135    0.001740831   -0.000896118
     16        6           0.000018090   -0.002314035   -0.000035051
     17        6           0.000573136    0.002874853   -0.000041743
     18        6           0.000287413   -0.001805818   -0.000246485
     19        6          -0.001800941    0.004282739    0.000903199
     20       16           0.001037350   -0.001416238   -0.000481767
     21        6           0.001275013    0.000718994   -0.000011730
     22        6          -0.002358529   -0.000998703   -0.000008910
     23        7           0.001464583   -0.002045485   -0.000934033
     24        6          -0.000184792   -0.000910647   -0.000163877
     25        6           0.000317540    0.000274579    0.000089423
     26        6          -0.000158509   -0.000419551   -0.000141607
     27        6          -0.000054886    0.001087720    0.000228786
     28        6          -0.001605019    0.002569756    0.000536868
     29        6           0.000930961   -0.001154513   -0.000246357
     30        1          -0.000292109   -0.000114398    0.000021862
     31        1           0.001076899    0.000315878    0.000015711
     32        1          -0.000323842   -0.000473439    0.000003968
     33        1           0.000117173    0.000075049    0.000019747
     34        1           0.000121612    0.000300916    0.000019342
     35        1          -0.000188344    0.000483751    0.000016414
     36        1          -0.000399203   -0.000216789    0.000007467
     37        1           0.000289474    0.000043525   -0.000092841
     38        1           0.000197806   -0.000068348    0.000607810
     39        1          -0.000279396    0.000106189    0.000667038
     40        1          -0.000033717   -0.000325199   -0.000764158
     41        1           0.000599464   -0.000057149   -0.000066213
     42        1          -0.000651322    0.000194552    0.000062986
     43        1          -0.000014099   -0.000694395   -0.000024106
     44        1          -0.000274140   -0.000286265    0.000135167
     45        1          -0.000219679   -0.000677964   -0.000022424
     46        1           0.000141893   -0.000339346   -0.000052181
     47        1           0.000438815   -0.000176466   -0.000094602
     48        1           0.000101192    0.000403790    0.000076672
     49        1          -0.000496780   -0.000242007    0.000020150
     50        1           0.000089811    0.000445070   -0.000211586
     51        1          -0.000216159   -0.000201774   -0.000520790
     52        1          -0.000407291   -0.000342866    0.000134987
     53        1          -0.000195130   -0.000276820    0.000778352
     54        1           0.000883521    0.000237066    0.000280900
 -------------------------------------------------------------------
 Cartesian Forces:  Max     0.004282739 RMS     0.000911919

 GradGradGradGradGradGradGradGradGradGradGradGradGradGradGradGradGradGrad
 Berny optimization.
 FormGI is forming the generalized inverse of G from B-inverse, IUseBI=4.
 Internal  Forces:  Max     0.002190628 RMS     0.000511828
 Search for a local minimum.
 Step number   1 out of a maximum of  296
 All quantities printed in internal units (Hartrees-Bohrs-Radians)
 Mixed Optimization -- En-DIIS/RFO-DIIS
 Second derivative matrix not updated -- first step.
 ITU=  0
     Eigenvalues ---    0.00367   0.00372   0.00724   0.00733   0.01274
     Eigenvalues ---    0.01288   0.01605   0.01612   0.01803   0.01805
     Eigenvalues ---    0.01900   0.01904   0.01917   0.01931   0.01970
     Eigenvalues ---    0.01981   0.02065   0.02105   0.02109   0.02111
     Eigenvalues ---    0.02126   0.02126   0.02127   0.02128   0.02128
     Eigenvalues ---    0.02130   0.02131   0.02131   0.02132   0.02134
     Eigenvalues ---    0.02134   0.02143   0.02144   0.02146   0.02148
     Eigenvalues ---    0.02158   0.02159   0.02159   0.02159   0.02164
     Eigenvalues ---    0.02173   0.02176   0.02189   0.04028   0.04062
     Eigenvalues ---    0.05225   0.05235   0.05458   0.05501   0.05652
     Eigenvalues ---    0.05672   0.09633   0.09696   0.12904   0.12940
     Eigenvalues ---    0.15989   0.15994   0.15999   0.15999   0.16000
     Eigenvalues ---    0.16000   0.16000   0.16000   0.16000   0.16000
     Eigenvalues ---    0.16000   0.16000   0.16000   0.16000   0.16000
     Eigenvalues ---    0.16000   0.16000   0.16000   0.16000   0.16000
     Eigenvalues ---    0.16000   0.21918   0.21933   0.22000   0.22000
     Eigenvalues ---    0.22000   0.22000   0.22000   0.22000   0.22000
     Eigenvalues ---    0.22002   0.22005   0.22598   0.22600   0.24511
     Eigenvalues ---    0.24513   0.24880   0.24961   0.24983   0.24994
     Eigenvalues ---    0.24997   0.24998   0.24999   0.25000   0.28814
     Eigenvalues ---    0.28882   0.28993   0.29410   0.29447   0.29475
     Eigenvalues ---    0.34234   0.34266   0.34306   0.34317   0.34323
     Eigenvalues ---    0.34342   0.34438   0.34553   0.34566   0.34637
     Eigenvalues ---    0.34667   0.34711   0.34894   0.34903   0.35055
     Eigenvalues ---    0.35295   0.35352   0.35353   0.35362   0.35364
     Eigenvalues ---    0.35368   0.35372   0.35372   0.35395   0.35445
     Eigenvalues ---    0.35491   0.35501   0.39592   0.39626   0.42286
     Eigenvalues ---    0.42297   0.43393   0.43828   0.44580   0.44647
     Eigenvalues ---    0.45329   0.45935   0.45980   0.46103   0.46146
     Eigenvalues ---    0.46155   0.46160   0.46193   0.46327   0.46415
     Eigenvalues ---    0.46582   0.46723   0.46814   0.46897   0.49957
     Eigenvalues ---    0.50000
 RFO step:  Lambda=-3.79510564D-04 EMin= 3.67118562D-03
 Linear search not attempted -- first point.
 Iteration  1 RMS(Cart)=  0.03979668 RMS(Int)=  0.00036372
 Iteration  2 RMS(Cart)=  0.00066413 RMS(Int)=  0.00000448
 Iteration  3 RMS(Cart)=  0.00000028 RMS(Int)=  0.00000448
 Variable       Old X    -DE/DX   Delta X   Delta X   Delta X     New X
                                 (Linear)    (Quad)   (Total)
    R1        2.63967   0.00042   0.00000   0.00092   0.00092   2.64059
    R2        2.63914  -0.00069   0.00000  -0.00150  -0.00150   2.63764
    R3        2.05039   0.00013   0.00000   0.00038   0.00038   2.05077
    R4        2.63132   0.00029   0.00000   0.00061   0.00061   2.63193
    R5        2.06147   0.00039   0.00000   0.00113   0.00113   2.06260
    R6        2.64015   0.00064   0.00000   0.00138   0.00138   2.64152
    R7        2.05848   0.00049   0.00000   0.00139   0.00139   2.05987
    R8        2.63481   0.00028   0.00000   0.00060   0.00060   2.63541
    R9        2.06269   0.00008   0.00000   0.00022   0.00022   2.06291
   R10        3.33176   0.00190   0.00000   0.00646   0.00645   3.33821
   R11        2.58202  -0.00085   0.00000  -0.00177  -0.00177   2.58025
   R12        3.32981   0.00009   0.00000   0.00054   0.00054   3.33034
   R13        2.65266   0.00081   0.00000   0.00188   0.00188   2.65453
   R14        2.63074   0.00039   0.00000   0.00084   0.00084   2.63159
   R15        2.65052  -0.00091   0.00000  -0.00211  -0.00211   2.64840
   R16        2.64299   0.00056   0.00000   0.00121   0.00121   2.64420
   R17        2.78392   0.00115   0.00000   0.00323   0.00323   2.78715
   R18        2.63584   0.00061   0.00000   0.00132   0.00132   2.63716
   R19        2.05088   0.00032   0.00000   0.00091   0.00091   2.05179
   R20        2.64619   0.00074   0.00000   0.00162   0.00162   2.64780
   R21        2.05076   0.00049   0.00000   0.00138   0.00138   2.05214
   R22        2.63412   0.00072   0.00000   0.00152   0.00152   2.63564
   R23        2.05107   0.00043   0.00000   0.00122   0.00122   2.05229
   R24        2.04885  -0.00014   0.00000  -0.00039  -0.00039   2.04845
   R25        2.89081  -0.00216   0.00000  -0.00732  -0.00732   2.88349
   R26        2.06407  -0.00048   0.00000  -0.00138  -0.00138   2.06268
   R27        2.06385  -0.00061   0.00000  -0.00177  -0.00177   2.06208
   R28        2.06883   0.00040   0.00000   0.00116   0.00116   2.06999
   R29        2.06799   0.00047   0.00000   0.00138   0.00138   2.06937
   R30        2.06788   0.00060   0.00000   0.00174   0.00174   2.06962
   R31        2.63952   0.00039   0.00000   0.00085   0.00085   2.64037
   R32        2.05833   0.00069   0.00000   0.00199   0.00199   2.06032
   R33        2.63957  -0.00019   0.00000  -0.00041  -0.00041   2.63916
   R34        2.05198  -0.00028   0.00000  -0.00078  -0.00078   2.05120
   R35        2.64896  -0.00021   0.00000  -0.00046  -0.00046   2.64850
   R36        2.05586   0.00069   0.00000   0.00195   0.00195   2.05781
   R37        3.33058   0.00200   0.00000   0.00688   0.00688   3.33746
   R38        2.58147  -0.00128   0.00000  -0.00262  -0.00262   2.57885
   R39        3.31864   0.00007   0.00000   0.00054   0.00054   3.31918
   R40        2.65308   0.00032   0.00000   0.00068   0.00068   2.65376
   R41        2.63284   0.00015   0.00000   0.00033   0.00033   2.63317
   R42        2.65632  -0.00122   0.00000  -0.00290  -0.00290   2.65342
   R43        2.64338   0.00022   0.00000   0.00042   0.00042   2.64380
   R44        2.78259   0.00151   0.00000   0.00426   0.00426   2.78684
   R45        2.63419   0.00066   0.00000   0.00147   0.00147   2.63566
   R46        2.05081   0.00037   0.00000   0.00104   0.00104   2.05185
   R47        2.64716   0.00080   0.00000   0.00181   0.00181   2.64897
   R48        2.05075   0.00045   0.00000   0.00128   0.00128   2.05203
   R49        2.63367   0.00061   0.00000   0.00129   0.00129   2.63496
   R50        2.05105   0.00040   0.00000   0.00113   0.00113   2.05218
   R51        2.04869   0.00000   0.00000   0.00001   0.00001   2.04870
   R52        2.89156  -0.00198   0.00000  -0.00673  -0.00673   2.88484
   R53        2.06220  -0.00035   0.00000  -0.00101  -0.00101   2.06119
   R54        2.06597  -0.00057   0.00000  -0.00165  -0.00165   2.06432
   R55        2.06816   0.00030   0.00000   0.00088   0.00088   2.06904
   R56        2.06936   0.00020   0.00000   0.00059   0.00059   2.06995
   R57        2.06756   0.00066   0.00000   0.00191   0.00191   2.06947
    A1        2.17116  -0.00020   0.00000  -0.00093  -0.00093   2.17024
    A2        2.05551   0.00039   0.00000   0.00228   0.00228   2.05780
    A3        2.05646  -0.00019   0.00000  -0.00135  -0.00135   2.05511
    A4        2.18044  -0.00140   0.00000  -0.00636  -0.00636   2.17408
    A5        2.06563   0.00178   0.00000   0.00993   0.00993   2.07556
    A6        2.03712  -0.00038   0.00000  -0.00357  -0.00357   2.03354
    A7        2.14515  -0.00128   0.00000  -0.00581  -0.00582   2.13933
    A8        2.07076   0.00033   0.00000   0.00096   0.00096   2.07172
    A9        2.06727   0.00095   0.00000   0.00486   0.00486   2.07213
   A10        2.18497  -0.00038   0.00000  -0.00173  -0.00173   2.18325
   A11        2.04717   0.00031   0.00000   0.00161   0.00161   2.04877
   A12        2.05105   0.00007   0.00000   0.00012   0.00012   2.05116
   A13        2.15892  -0.00005   0.00000  -0.00004  -0.00004   2.15888
   A14        2.19135  -0.00010   0.00000  -0.00023  -0.00023   2.19112
   A15        1.93291   0.00014   0.00000   0.00028   0.00027   1.93318
   A16        1.59111  -0.00037   0.00000  -0.00102  -0.00102   1.59010
   A17        1.92992  -0.00039   0.00000  -0.00123  -0.00123   1.92869
   A18        2.23209  -0.00034   0.00000  -0.00159  -0.00159   2.23050
   A19        2.12116   0.00073   0.00000   0.00283   0.00283   2.12399
   A20        1.96407   0.00068   0.00000   0.00262   0.00262   1.96669
   A21        2.09604  -0.00047   0.00000  -0.00180  -0.00180   2.09424
   A22        2.22308  -0.00021   0.00000  -0.00082  -0.00082   2.22226
   A23        2.00625  -0.00007   0.00000  -0.00075  -0.00075   2.00549
   A24        2.14709  -0.00039   0.00000  -0.00134  -0.00134   2.14575
   A25        2.12944   0.00046   0.00000   0.00204   0.00204   2.13148
   A26        2.06262  -0.00034   0.00000  -0.00142  -0.00142   2.06119
   A27        2.11005   0.00016   0.00000   0.00064   0.00064   2.11070
   A28        2.11051   0.00018   0.00000   0.00078   0.00078   2.11130
   A29        2.10431  -0.00018   0.00000  -0.00078  -0.00078   2.10353
   A30        2.08616  -0.00008   0.00000  -0.00069  -0.00069   2.08548
   A31        2.09271   0.00026   0.00000   0.00146   0.00146   2.09417
   A32        2.11657   0.00038   0.00000   0.00173   0.00173   2.11829
   A33        2.08879  -0.00004   0.00000   0.00008   0.00008   2.08887
   A34        2.07782  -0.00034   0.00000  -0.00180  -0.00180   2.07602
   A35        2.06563  -0.00012   0.00000  -0.00055  -0.00055   2.06507
   A36        2.12029  -0.00020   0.00000  -0.00136  -0.00136   2.11893
   A37        2.09724   0.00032   0.00000   0.00193   0.00193   2.09916
   A38        1.97053  -0.00073   0.00000  -0.00410  -0.00410   1.96643
   A39        1.86560   0.00043   0.00000   0.00286   0.00285   1.86846
   A40        1.87992   0.00038   0.00000   0.00179   0.00177   1.88170
   A41        1.94088  -0.00006   0.00000  -0.00142  -0.00142   1.93946
   A42        1.94650  -0.00007   0.00000  -0.00207  -0.00207   1.94444
   A43        1.85446   0.00014   0.00000   0.00367   0.00366   1.85812
   A44        1.91384  -0.00104   0.00000  -0.00794  -0.00795   1.90588
   A45        1.94137  -0.00012   0.00000  -0.00014  -0.00014   1.94122
   A46        1.93961  -0.00002   0.00000   0.00075   0.00074   1.94035
   A47        1.89014   0.00043   0.00000   0.00105   0.00104   1.89118
   A48        1.88900   0.00043   0.00000   0.00149   0.00149   1.89049
   A49        1.88840   0.00037   0.00000   0.00500   0.00500   1.89339
   A50        2.14738  -0.00219   0.00000  -0.00994  -0.00994   2.13744
   A51        2.06800   0.00108   0.00000   0.00489   0.00489   2.07289
   A52        2.06780   0.00111   0.00000   0.00505   0.00505   2.07285
   A53        2.15281  -0.00088   0.00000  -0.00393  -0.00394   2.14887
   A54        2.02991   0.00015   0.00000   0.00027   0.00026   2.03017
   A55        2.09982   0.00074   0.00000   0.00395   0.00394   2.10375
   A56        2.28664  -0.00115   0.00000  -0.00513  -0.00514   2.28150
   A57        2.01737   0.00039   0.00000   0.00161   0.00160   2.01897
   A58        1.97771   0.00076   0.00000   0.00393   0.00392   1.98163
   A59        2.05849  -0.00116   0.00000  -0.00450  -0.00451   2.05399
   A60        2.29362   0.00131   0.00000   0.00536   0.00535   2.29898
   A61        1.93103  -0.00015   0.00000  -0.00090  -0.00091   1.93012
   A62        1.59743  -0.00014   0.00000   0.00016   0.00016   1.59759
   A63        1.92557  -0.00085   0.00000  -0.00306  -0.00306   1.92251
   A64        2.23760   0.00004   0.00000   0.00003   0.00003   2.23763
   A65        2.12001   0.00081   0.00000   0.00303   0.00303   2.12304
   A66        1.96854   0.00115   0.00000   0.00436   0.00436   1.97290
   A67        2.09667  -0.00025   0.00000  -0.00102  -0.00102   2.09566
   A68        2.21791  -0.00089   0.00000  -0.00332  -0.00332   2.21459
   A69        2.00167  -0.00001   0.00000  -0.00047  -0.00048   2.00119
   A70        2.17156   0.00087   0.00000   0.00398   0.00397   2.17554
   A71        2.10673  -0.00086   0.00000  -0.00299  -0.00300   2.10373
   A72        2.06300  -0.00049   0.00000  -0.00204  -0.00204   2.06095
   A73        2.10903   0.00022   0.00000   0.00088   0.00088   2.10991
   A74        2.11116   0.00027   0.00000   0.00117   0.00117   2.11232
   A75        2.10468  -0.00017   0.00000  -0.00051  -0.00051   2.10417
   A76        2.08633  -0.00008   0.00000  -0.00079  -0.00079   2.08555
   A77        2.09217   0.00025   0.00000   0.00129   0.00129   2.09346
   A78        2.11648   0.00031   0.00000   0.00156   0.00156   2.11804
   A79        2.08872  -0.00001   0.00000   0.00016   0.00016   2.08888
   A80        2.07799  -0.00031   0.00000  -0.00172  -0.00172   2.07627
   A81        2.06551  -0.00021   0.00000  -0.00104  -0.00104   2.06447
   A82        2.12066  -0.00046   0.00000  -0.00300  -0.00300   2.11766
   A83        2.09697   0.00067   0.00000   0.00404   0.00404   2.10101
   A84        1.97740  -0.00104   0.00000  -0.00514  -0.00515   1.97225
   A85        1.87339   0.00059   0.00000   0.00524   0.00525   1.87864
   A86        1.86213   0.00034   0.00000  -0.00042  -0.00044   1.86169
   A87        1.95529   0.00022   0.00000   0.00206   0.00207   1.95736
   A88        1.93140   0.00001   0.00000  -0.00285  -0.00287   1.92854
   A89        1.85768  -0.00005   0.00000   0.00157   0.00157   1.85925
   A90        1.94993  -0.00010   0.00000   0.00004   0.00004   1.94997
   A91        1.91310  -0.00105   0.00000  -0.00811  -0.00813   1.90497
   A92        1.93953  -0.00053   0.00000  -0.00237  -0.00238   1.93715
   A93        1.89197   0.00043   0.00000   0.00097   0.00096   1.89293
   A94        1.88072   0.00065   0.00000   0.00692   0.00692   1.88764
   A95        1.88677   0.00068   0.00000   0.00296   0.00294   1.88971
    D1        3.13643  -0.00000   0.00000  -0.00003  -0.00002   3.13641
    D2       -0.00559  -0.00003   0.00000  -0.00115  -0.00116  -0.00675
    D3        0.00569  -0.00002   0.00000  -0.00118  -0.00118   0.00451
    D4       -3.13634  -0.00005   0.00000  -0.00231  -0.00231  -3.13865
    D5       -0.03236  -0.00008   0.00000  -0.00342  -0.00342  -0.03578
    D6        3.11344  -0.00011   0.00000  -0.00507  -0.00507   3.10837
    D7        3.09837  -0.00005   0.00000  -0.00224  -0.00224   3.09613
    D8       -0.03901  -0.00008   0.00000  -0.00389  -0.00389  -0.04290
    D9       -3.14118  -0.00004   0.00000  -0.00177  -0.00176   3.14024
   D10        0.00179  -0.00007   0.00000  -0.00321  -0.00321  -0.00142
   D11        0.00084  -0.00002   0.00000  -0.00066  -0.00066   0.00018
   D12       -3.13938  -0.00005   0.00000  -0.00210  -0.00210  -3.14148
   D13       -3.14097  -0.00011   0.00000  -0.00496  -0.00496   3.13725
   D14        0.00115  -0.00004   0.00000  -0.00189  -0.00189  -0.00074
   D15       -0.00074  -0.00008   0.00000  -0.00352  -0.00352  -0.00426
   D16        3.14137  -0.00001   0.00000  -0.00045  -0.00044   3.14093
   D17        3.14137   0.00008   0.00000   0.00348   0.00348  -3.13834
   D18        0.00115  -0.00002   0.00000  -0.00093  -0.00093   0.00022
   D19       -0.00075   0.00001   0.00000   0.00040   0.00040  -0.00035
   D20       -3.14096  -0.00009   0.00000  -0.00402  -0.00401   3.13821
   D21       -3.11940   0.00001   0.00000   0.00122   0.00122  -3.11818
   D22        0.01854   0.00004   0.00000   0.00265   0.00265   0.02119
   D23        3.10581  -0.00003   0.00000  -0.00207  -0.00207   3.10374
   D24       -0.00552  -0.00001   0.00000  -0.00032  -0.00032  -0.00584
   D25       -0.03204  -0.00006   0.00000  -0.00354  -0.00353  -0.03557
   D26        3.13982  -0.00004   0.00000  -0.00179  -0.00179   3.13803
   D27       -0.00118  -0.00002   0.00000  -0.00116  -0.00116  -0.00234
   D28        3.13701  -0.00000   0.00000  -0.00058  -0.00058   3.13643
   D29       -0.01621  -0.00002   0.00000  -0.00059  -0.00059  -0.01680
   D30        3.12741   0.00000   0.00000   0.00020   0.00020   3.12761
   D31        3.12853  -0.00003   0.00000  -0.00112  -0.00112   3.12742
   D32       -0.01103  -0.00001   0.00000  -0.00033  -0.00033  -0.01136
   D33       -3.13302  -0.00000   0.00000  -0.00017  -0.00017  -3.13320
   D34        0.00684  -0.00001   0.00000  -0.00029  -0.00029   0.00654
   D35        0.00483   0.00001   0.00000   0.00046   0.00046   0.00529
   D36       -3.13849   0.00001   0.00000   0.00034   0.00034  -3.13816
   D37        0.03181   0.00005   0.00000   0.00274   0.00275   0.03456
   D38       -3.13971   0.00002   0.00000   0.00096   0.00096  -3.13875
   D39       -3.11199   0.00003   0.00000   0.00189   0.00189  -3.11010
   D40       -0.00032   0.00000   0.00000   0.00010   0.00010  -0.00022
   D41        0.00973  -0.00001   0.00000  -0.00017  -0.00017   0.00956
   D42       -3.12332  -0.00005   0.00000  -0.00206  -0.00205  -3.12538
   D43       -3.12950   0.00001   0.00000   0.00074   0.00074  -3.12877
   D44        0.02063  -0.00003   0.00000  -0.00115  -0.00115   0.01948
   D45        1.53896  -0.00006   0.00000  -0.00554  -0.00554   1.53343
   D46       -2.60460  -0.00031   0.00000  -0.00792  -0.00792  -2.61252
   D47       -0.61789   0.00024   0.00000  -0.00147  -0.00147  -0.61936
   D48       -1.57027  -0.00004   0.00000  -0.00362  -0.00362  -1.57388
   D49        0.56936  -0.00028   0.00000  -0.00600  -0.00600   0.56335
   D50        2.55607   0.00026   0.00000   0.00045   0.00045   2.55652
   D51        0.00231  -0.00000   0.00000  -0.00009  -0.00009   0.00222
   D52        3.14026   0.00000   0.00000   0.00000   0.00000   3.14026
   D53       -3.13755   0.00000   0.00000   0.00003   0.00003  -3.13752
   D54        0.00040   0.00000   0.00000   0.00012   0.00012   0.00052
   D55       -0.00336  -0.00001   0.00000  -0.00040  -0.00040  -0.00375
   D56        3.13511   0.00000   0.00000   0.00025   0.00025   3.13536
   D57       -3.14130  -0.00001   0.00000  -0.00049  -0.00049   3.14140
   D58       -0.00283   0.00000   0.00000   0.00016   0.00017  -0.00267
   D59       -0.00273   0.00001   0.00000   0.00051   0.00051  -0.00222
   D60        3.13044   0.00005   0.00000   0.00236   0.00236   3.13280
   D61       -3.14121  -0.00000   0.00000  -0.00014  -0.00014  -3.14135
   D62       -0.00804   0.00004   0.00000   0.00171   0.00171  -0.00633
   D63        3.13138   0.00005   0.00000   0.00187   0.00187   3.13325
   D64       -1.06156  -0.00017   0.00000  -0.00208  -0.00208  -1.06364
   D65        1.04366   0.00021   0.00000   0.00469   0.00468   1.04834
   D66        1.03440   0.00005   0.00000   0.00205   0.00205   1.03644
   D67        3.12465  -0.00017   0.00000  -0.00190  -0.00190   3.12274
   D68       -1.05332   0.00021   0.00000   0.00486   0.00486  -1.04846
   D69       -1.03220  -0.00003   0.00000  -0.00028  -0.00028  -1.03248
   D70        1.05805  -0.00025   0.00000  -0.00423  -0.00422   1.05382
   D71       -3.11992   0.00012   0.00000   0.00254   0.00254  -3.11738
   D72       -3.10723  -0.00026   0.00000  -0.01185  -0.01185  -3.11908
   D73       -0.00445  -0.00007   0.00000  -0.00323  -0.00324  -0.00769
   D74        0.03298  -0.00016   0.00000  -0.00743  -0.00743   0.02556
   D75        3.13576   0.00003   0.00000   0.00118   0.00118   3.13694
   D76        3.13699   0.00015   0.00000   0.00707   0.00707  -3.13912
   D77        0.05838  -0.00004   0.00000  -0.00187  -0.00186   0.05652
   D78        0.03570  -0.00004   0.00000  -0.00179  -0.00179   0.03391
   D79       -3.04290  -0.00023   0.00000  -0.01073  -0.01073  -3.05363
   D80       -2.92224  -0.00036   0.00000  -0.01721  -0.01721  -2.93944
   D81        0.22995  -0.00022   0.00000  -0.01058  -0.01059   0.21936
   D82        0.15750  -0.00018   0.00000  -0.00848  -0.00848   0.14902
   D83       -2.97350  -0.00004   0.00000  -0.00186  -0.00186  -2.97536
   D84        3.13431   0.00018   0.00000   0.00971   0.00968  -3.13920
   D85       -0.01578   0.00008   0.00000   0.00444   0.00444  -0.01133
   D86       -3.12051  -0.00023   0.00000  -0.01068  -0.01069  -3.13120
   D87        0.10707  -0.00030   0.00000  -0.01736  -0.01738   0.08969
   D88        0.03109  -0.00009   0.00000  -0.00441  -0.00441   0.02668
   D89       -3.02452  -0.00016   0.00000  -0.01109  -0.01110  -3.03562
   D90       -0.00285  -0.00005   0.00000  -0.00342  -0.00341  -0.00627
   D91        3.14049  -0.00004   0.00000  -0.00258  -0.00258   3.13791
   D92        0.02058   0.00002   0.00000   0.00168   0.00168   0.02226
   D93       -3.13241   0.00007   0.00000   0.00370   0.00370  -3.12871
   D94       -3.12263   0.00001   0.00000   0.00091   0.00091  -3.12172
   D95        0.00757   0.00006   0.00000   0.00293   0.00293   0.01049
   D96        3.13602  -0.00006   0.00000  -0.00315  -0.00315   3.13287
   D97       -0.00523  -0.00004   0.00000  -0.00230  -0.00230  -0.00753
   D98       -0.00365  -0.00005   0.00000  -0.00223  -0.00223  -0.00588
   D99        3.13829  -0.00003   0.00000  -0.00138  -0.00138   3.13691
   D100      -0.03414   0.00003   0.00000   0.00174   0.00174  -0.03240
[...]
     23          7           0        5.516469    0.498364    0.268603
     24          6           0        8.943835   -0.657956   -0.243514
     25          6           0        9.683885    0.513472   -0.082897
     26          6           0        9.042855    1.729074    0.191625
     27          6           0        7.656368    1.806229    0.315968
     28          6           0        4.681074    1.640772    0.689003
     29          6           0        4.230026    2.513537   -0.479511
     30          1           0       -3.743308   -2.158516   -0.139118
     31          1           0       -2.276157    0.566973   -0.068985
     32          1           0       -1.252103   -2.341947   -0.076872
     33          1           0        0.088343    0.447212   -0.026034
     34          1           0       -7.126873    3.523275    0.092513
     35          1           0       -9.579460    3.100929    0.041199
     36          1           0      -10.445781    0.780193   -0.108878
     37          1           0       -8.906164   -1.144838   -0.216512
     38          1           0       -7.296968   -2.391243   -0.908256
     39          1           0       -5.579590   -2.725951   -0.936771
     40          1           0       -6.702925   -4.049915    0.862028
     41          1           0       -5.564292   -2.900824    1.594270
     42          1           0       -7.309024   -2.561361    1.616175
     43          1           0        1.288945   -2.404766   -0.009554
     44          1           0        2.450493    0.448567    0.011737
     45          1           0        3.711023   -2.367367   -0.058037
     46          1           0        9.432432   -1.603332   -0.458504
     47          1           0       10.765223    0.479700   -0.175694
     48          1           0        9.632280    2.633764    0.307704
     49          1           0        7.176384    2.756892    0.518337
     50          1           0        3.838118    1.239490    1.252369
     51          1           0        5.277778    2.220371    1.396674
     52          1           0        3.643681    1.944338   -1.208085
     53          1           0        3.608361    3.331149   -0.098279
     54          1           0        5.090091    2.949514   -0.998127
 ---------------------------------------------------------------------
 Rotational constants (GHZ):           0.4993778           0.0308480           0.0292043

 **********************************************************************

            Population analysis using the SCF Density.

 **********************************************************************

 Orbital symmetries:
       Occupied  (A) (A) (A) (A) (A) (A) (A) (A) (A) (A) (A) (A)
                 (A) (A) (A) (A) (A) (A) (A) (A) (A) (A) (A) (A)
                 (A) (A) (A) (A) (A) (A) (A) (A) (A) (A) (A) (A)
                 (A) (A) (A) (A) (A) (A) (A) (A) (A) (A) (A) (A)
                 (A) (A) (A) (A) (A) (A) (A) (A) (A) (A) (A) (A)
                 (A) (A) (A) (A) (A) (A) (A) (A) (A) (A) (A) (A)
                 (A) (A) (A) (A) (A) (A) (A) (A) (A) (A) (A) (A)
                 (A) (A) (A) (A) (A) (A) (A) (A) (A) (A) (A) (A)
                 (A) (A) (A) (A) (A) (A) (A) (A) (A) (A) (A) (A)
                 (A) (A)
       Virtual   (A) (A) (A) (A) (A) (A) (A) (A) (A) (A) (A) (A)
                 (A) (A) (A) (A) (A) (A) (A) (A) (A) (A) (A) (A)
                 (A) (A) (A) (A) (A) (A) (A) (A) (A) (A) (A) (A)
                 (A) (A) (A) (A) (A) (A) (A) (A) (A) (A) (A) (A)
                 (A) (A) (A) (A) (A) (A) (A) (A) (A) (A) (A) (A)
                 (A) (A) (A) (A) (A) (A) (A) (A) (A) (A) (A) (A)
                 (A) (A) (A) (A) (A) (A) (A) (A) (A) (A) (A) (A)
                 (A) (A) (A) (A) (A) (A) (A) (A) (A) (A) (A) (A)
                 (A) (A) (A) (A) (A) (A) (A) (A) (A) (A) (A) (A)
                 (A) (A) (A) (A) (A) (A) (A) (A) (A) (A) (A) (A)
                 (A) (A) (A) (A) (A) (A) (A) (A) (A) (A) (A) (A)
                 (A) (A) (A) (A) (A) (A) (A) (A) (A) (A) (A) (A)
                 (A) (A) (A) (A) (A) (A) (A) (A) (A) (A) (A) (A)
                 (A) (A) (A) (A) (A) (A) (A) (A) (A) (A) (A) (A)
                 (A) (A) (A) (A) (A) (A) (A) (A) (A) (A) (A) (A)
                 (A) (A) (A) (A) (A) (A) (A) (A) (A) (A) (A) (A)
                 (A) (A) (A) (A) (A) (A) (A) (A) (A) (A) (A) (A)
                 (A) (A) (A) (A) (A) (A) (A) (A) (A) (A) (A) (A)
                 (A) (A) (A) (A) (A) (A) (A) (A) (A) (A) (A) (A)
                 (A) (A) (A) (A) (A) (A) (A) (A) (A) (A) (A) (A)
                 (A) (A) (A) (A) (A) (A) (A) (A) (A) (A) (A) (A)
                 (A) (A) (A) (A) (A) (A) (A) (A) (A) (A) (A) (A)
                 (A) (A) (A) (A) (A) (A) (A) (A) (A) (A) (A) (A)
                 (A) (A) (A) (A) (A) (A) (A) (A) (A) (A) (A) (A)
                 (A) (A) (A) (A) (A) (A) (A) (A) (A) (A) (A) (A)
                 (A) (A) (A) (A) (A) (A) (A) (A) (A) (A) (A) (A)
                 (A) (A) (A) (A) (A) (A) (A) (A) (A) (A) (A) (A)
                 (A) (A) (A) (A) (A) (A) (A) (A) (A) (A) (A) (A)
                 (A) (A) (A) (A) (A) (A) (A) (A) (A) (A) (A) (A)
                 (A) (A) (A) (A) (A) (A) (A) (A) (A) (A) (A) (A)
                 (A) (A) (A) (A) (A) (A) (A) (A) (A) (A) (A) (A)
                 (A) (A) (A) (A) (A) (A) (A) (A) (A) (A) (A)
 The electronic state is 1-A.
 Alpha  occ. eigenvalues --  -88.93002 -88.92847 -14.42007 -14.41646 -10.29596
 Alpha  occ. eigenvalues --  -10.29195 -10.25481 -10.25351 -10.24162 -10.24062
 Alpha  occ. eigenvalues --  -10.23610 -10.23446 -10.21557 -10.21548 -10.20911
 Alpha  occ. eigenvalues --  -10.20872 -10.20829 -10.20642 -10.20535 -10.20398
 Alpha  occ. eigenvalues --  -10.20148 -10.20049 -10.19984 -10.19975 -10.19859
 Alpha  occ. eigenvalues --  -10.19120 -10.19112 -10.18266 -10.18130  -7.99131
 Alpha  occ. eigenvalues --   -7.98970  -5.95579  -5.95425  -5.95215  -5.95061
 Alpha  occ. eigenvalues --   -5.94726  -5.94552  -1.01709  -1.01543  -0.87532
 Alpha  occ. eigenvalues --   -0.87411  -0.84843  -0.84626  -0.82985  -0.81221
 Alpha  occ. eigenvalues --   -0.78962  -0.77439  -0.77163  -0.76315  -0.74937
 Alpha  occ. eigenvalues --   -0.74516  -0.73153  -0.70139  -0.66447  -0.65804
 Alpha  occ. eigenvalues --   -0.65629  -0.63461  -0.62637  -0.61264  -0.60540
 Alpha  occ. eigenvalues --   -0.58682  -0.57099  -0.56396  -0.55957  -0.52649
 Alpha  occ. eigenvalues --   -0.52514  -0.52323  -0.50586  -0.50132  -0.48482
 Alpha  occ. eigenvalues --   -0.47185  -0.47072  -0.46961  -0.46365  -0.46309
 Alpha  occ. eigenvalues --   -0.45727  -0.45327  -0.44561  -0.43804  -0.43486
 Alpha  occ. eigenvalues --   -0.42934  -0.41982  -0.40529  -0.40389  -0.39888
 Alpha  occ. eigenvalues --   -0.39615  -0.39110  -0.38974  -0.37999  -0.37771
 Alpha  occ. eigenvalues --   -0.37231  -0.37143  -0.37000  -0.36823  -0.36388
 Alpha  occ. eigenvalues --   -0.36033  -0.35606  -0.35556  -0.35272  -0.35061
 Alpha  occ. eigenvalues --   -0.34629  -0.31916  -0.31696  -0.31452  -0.28582
 Alpha  occ. eigenvalues --   -0.26151  -0.25029  -0.24912  -0.22880  -0.17805
 Alpha virt. eigenvalues --   -0.10017  -0.03846  -0.01713  -0.01652  -0.00748
 Alpha virt. eigenvalues --   -0.00536  -0.00229   0.00292   0.03451   0.06659
 Alpha virt. eigenvalues --    0.06965   0.07632   0.08855   0.09343   0.09618
 Alpha virt. eigenvalues --    0.10831   0.11309   0.11779   0.12582   0.13267
 Alpha virt. eigenvalues --    0.13524   0.13857   0.14177   0.14695   0.15226
 Alpha virt. eigenvalues --    0.15521   0.15816   0.15935   0.16101   0.16272
 Alpha virt. eigenvalues --    0.16457   0.16932   0.17235   0.18145   0.18294
 Alpha virt. eigenvalues --    0.18629   0.19356   0.19580   0.19745   0.20367
 Alpha virt. eigenvalues --    0.20621   0.21156   0.21554   0.22483   0.23011
 Alpha virt. eigenvalues --    0.23265   0.24292   0.25457   0.26179   0.26619
 Alpha virt. eigenvalues --    0.26959   0.27730   0.29004   0.30383   0.31060
 Alpha virt. eigenvalues --    0.32278   0.33084   0.33288   0.34454   0.34571
 Alpha virt. eigenvalues --    0.35070   0.35430   0.35882   0.36454   0.37748
 Alpha virt. eigenvalues --    0.38462   0.39143   0.39405   0.40054   0.41380
 Alpha virt. eigenvalues --    0.43841   0.45195   0.47867   0.48343   0.48662
 Alpha virt. eigenvalues --    0.49209   0.49385   0.50138   0.50873   0.51069
 Alpha virt. eigenvalues --    0.51564   0.52330   0.52717   0.53550   0.53586
 Alpha virt. eigenvalues --    0.53948   0.54980   0.55244   0.55616   0.56357
 Alpha virt. eigenvalues --    0.56673   0.57033   0.57410   0.57783   0.57888
 Alpha virt. eigenvalues --    0.58181   0.58249   0.58356   0.58703   0.59223
 Alpha virt. eigenvalues --    0.59737   0.59838   0.60167   0.60390   0.60579
 Alpha virt. eigenvalues --    0.60655   0.60714   0.61227   0.61797   0.62064
 Alpha virt. eigenvalues --    0.62942   0.63446   0.64001   0.64265   0.64879
 Alpha virt. eigenvalues --    0.65977   0.66245   0.66449   0.68705   0.69534
 Alpha virt. eigenvalues --    0.71101   0.71519   0.71650   0.72162   0.73276
 Alpha virt. eigenvalues --    0.74192   0.75564   0.75711   0.77155   0.77783
 Alpha virt. eigenvalues --    0.80122   0.81022   0.81570   0.81865   0.82456
 Alpha virt. eigenvalues --    0.82691   0.82974   0.83578   0.83992   0.84660
 Alpha virt. eigenvalues --    0.85043   0.85328   0.86435   0.86711   0.86976
 Alpha virt. eigenvalues --    0.87374   0.87951   0.88049   0.88479   0.89015
 Alpha virt. eigenvalues --    0.89063   0.89408   0.89627   0.90199   0.90755
 Alpha virt. eigenvalues --    0.91008   0.91150   0.92016   0.92232   0.93419
 Alpha virt. eigenvalues --    0.93656   0.94904   0.95033   0.96032   0.96311
 Alpha virt. eigenvalues --    0.96865   0.97400   0.97981   0.98609   0.98790
 Alpha virt. eigenvalues --    0.99247   0.99864   1.00382   1.00502   1.01216
 Alpha virt. eigenvalues --    1.01218   1.02827   1.03255   1.04115   1.04570
 Alpha virt. eigenvalues --    1.05158   1.05992   1.07167   1.08577   1.09539
 Alpha virt. eigenvalues --    1.10299   1.10615   1.11540   1.13454   1.14902
 Alpha virt. eigenvalues --    1.15786   1.18362   1.19164   1.19628   1.20715
 Alpha virt. eigenvalues --    1.21952   1.23076   1.23882   1.24658   1.25915
 Alpha virt. eigenvalues --    1.27642   1.29216   1.29812   1.30933   1.31337
 Alpha virt. eigenvalues --    1.32302   1.32749   1.34030   1.35999   1.37748
 Alpha virt. eigenvalues --    1.39114   1.39573   1.39912   1.40462   1.40991
 Alpha virt. eigenvalues --    1.41667   1.42156   1.42395   1.42556   1.46254
 Alpha virt. eigenvalues --    1.46579   1.47159   1.48384   1.48470   1.49236
 Alpha virt. eigenvalues --    1.50543   1.51710   1.53905   1.54582   1.54914
 Alpha virt. eigenvalues --    1.55595   1.55945   1.56351   1.57597   1.60247
 Alpha virt. eigenvalues --    1.63441   1.66169   1.67779   1.69195   1.70782
 Alpha virt. eigenvalues --    1.72368   1.76418   1.77619   1.78502   1.78723
 Alpha virt. eigenvalues --    1.81267   1.82640   1.83170   1.83937   1.84746
 Alpha virt. eigenvalues --    1.85217   1.85877   1.87226   1.87477   1.89081
 Alpha virt. eigenvalues --    1.89112   1.89874   1.90367   1.90880   1.91906
 Alpha virt. eigenvalues --    1.92757   1.93457   1.93877   1.94448   1.95009
 Alpha virt. eigenvalues --    1.95403   1.96687   1.97985   1.98422   2.00018
 Alpha virt. eigenvalues --    2.00853   2.01530   2.02343   2.04598   2.06071
 Alpha virt. eigenvalues --    2.07509   2.07831   2.08225   2.11063   2.12494
 Alpha virt. eigenvalues --    2.12751   2.13114   2.13346   2.13463   2.13818
 Alpha virt. eigenvalues --    2.16540   2.17429   2.18339   2.19196   2.20345
 Alpha virt. eigenvalues --    2.21456   2.21601   2.22162   2.23058   2.23797
 Alpha virt. eigenvalues --    2.27027   2.27434   2.28180   2.28703   2.28990
 Alpha virt. eigenvalues --    2.29284   2.31025   2.31649   2.32085   2.33069
 Alpha virt. eigenvalues --    2.34553   2.34809   2.36834   2.37835   2.39142
 Alpha virt. eigenvalues --    2.41956   2.44967   2.45989   2.46936   2.48490
 Alpha virt. eigenvalues --    2.48850   2.49131   2.50621   2.51196   2.53429
 Alpha virt. eigenvalues --    2.55419   2.57390   2.57564   2.59792   2.60885
 Alpha virt. eigenvalues --    2.61420   2.62582   2.65773   2.66326   2.67772
 Alpha virt. eigenvalues --    2.68385   2.69496   2.70954   2.72051   2.72698
 Alpha virt. eigenvalues --    2.75306   2.75379   2.78908   2.86221   2.86799
 Alpha virt. eigenvalues --    2.89151   2.90544   2.91987   2.93642   2.94130
 Alpha virt. eigenvalues --    2.98368   3.01349   3.08655   3.09883   3.15535
 Alpha virt. eigenvalues --    3.21324   3.21517   3.39413   3.39703   3.94041
 Alpha virt. eigenvalues --    3.94166   4.06284   4.06589   4.07483   4.07541
 Alpha virt. eigenvalues --    4.09075   4.09740   4.10912   4.11442   4.11830
 Alpha virt. eigenvalues --    4.13400   4.15579   4.18623   4.23417   4.27193
 Alpha virt. eigenvalues --    4.27780   4.30934   4.33843   4.35524   4.36797
 Alpha virt. eigenvalues --    4.38751   4.45087   4.47511   4.48472   4.53964
 Alpha virt. eigenvalues --    4.57649   4.70959   4.71226
          Condensed to atoms (all electrons):
 Mulliken charges:
               1
     1  C   -0.217278
     2  C   -0.128286
     3  C   -0.169735
     4  C   -0.128892
     5  C    0.128815
     6  S    0.274851
     7  C   -0.171277
     8  C    0.373231
     9  N   -0.516860
    10  C   -0.196022
    11  C   -0.138399
    12  C   -0.169780
    13  C   -0.168626
    14  C   -0.172052
    15  C   -0.461665
    16  C   -0.169692
    17  C   -0.102054
    18  C   -0.231354
    19  C    0.142423
    20  S    0.275537
    21  C   -0.169616
    22  C    0.369309
    23  N   -0.511264
    24  C   -0.194478
    25  C   -0.136531
    26  C   -0.169865
    27  C   -0.165703
    28  C   -0.182427
    29  C   -0.463918
    30  H    0.194405
    31  H    0.179538
    32  H    0.159403
    33  H    0.171670
    34  H    0.189023
    35  H    0.172607
    36  H    0.174539
    37  H    0.191921
    38  H    0.203982
    39  H    0.203916
    40  H    0.175550
    41  H    0.175152
    42  H    0.174606
    43  H    0.160008
    44  H    0.187107
    45  H    0.181678
    46  H    0.189961
    47  H    0.173910
    48  H    0.175724
    49  H    0.194097
    50  H    0.204198
    51  H    0.205312
    52  H    0.179299
    53  H    0.177068
    54  H    0.176932
 Sum of Mulliken charges =   1.00000
 Mulliken charges with hydrogens summed into heavy atoms:
               1
     1  C   -0.022873
     2  C    0.051252
     3  C   -0.010332
     4  C    0.042778
     5  C    0.128815
     6  S    0.274851
     7  C   -0.171277
     8  C    0.373231
     9  N   -0.516860
    10  C   -0.007000
    11  C    0.034207
    12  C    0.004759
    13  C    0.023295
    14  C    0.235846
    15  C    0.063643
    16  C   -0.009684
    17  C    0.085053
    18  C   -0.049676
    19  C    0.142423
    20  S    0.275537
    21  C   -0.169616
    22  C    0.369309
    23  N   -0.511264
    24  C   -0.004517
    25  C    0.037379
    26  C    0.005859
    27  C    0.028394
    28  C    0.227083
    29  C    0.069381
 Electronic spatial extent (au):  <R**2>=          33300.8724
 Charge=              1.0000 electrons
 Dipole moment (field-independent basis, Debye):
    X=             -1.0942    Y=              0.3814    Z=              0.4189  Tot=              1.2322
 Quadrupole moment (field-independent basis, Debye-Ang):
   XX=             37.0078   YY=           -146.1221   ZZ=           -189.8958
   XY=             26.9993   XZ=              5.1114   YZ=              4.7025
 Traceless Quadrupole moment (field-independent basis, Debye-Ang):
   XX=            136.6779   YY=            -46.4521   ZZ=            -90.2258
   XY=             26.9993   XZ=              5.1114   YZ=              4.7025
 Octapole moment (field-independent basis, Debye-Ang**2):
  XXX=            -97.1480  YYY=              9.4381  ZZZ=              3.0540  XYY=            -43.2346
  XXY=             33.0926  XXZ=            -11.9609  XZZ=              1.6075  YZZ=             -0.7671
  YYZ=              3.7168  XYZ=             12.5688
 Hexadecapole moment (field-independent basis, Debye-Ang**3):
 XXXX=         -26102.8355 YYYY=          -2503.3345 ZZZZ=           -341.9669 XXXY=            746.8410
 XXXZ=             41.8856 YYYX=            116.2045 YYYZ=             35.5566 ZZZX=              4.4040
 ZZZY=              3.8809 XXYY=          -6079.0636 XXZZ=          -7593.8702 YYZZ=           -543.1063
 XXYZ=            226.4034 YYXZ=             27.4374 ZZXY=             65.4576
 N-N= 2.587394764618D+03 E-N=-9.536810415186D+03  KE= 1.860179386907D+03
 Unable to Open any file for archive entry.
 1\1\GINC-CN05\FOpt\RB3LYP\6-31G(d)\C25H25N2S2(1+)\2100011873\06-Nov-20
 23\0\\# opt b3lyp/6-31g* scrf(smd, solvent=ethanol)\\A-4\\1,1\C,-3.653
 0669947,-1.0746639294,-0.1017218953\C,-2.3721264925,-0.5174652106,-0.0
 639592668\C,-1.1884881805,-1.252317593,-0.0451013472\C,0.0693122554,-0
 .6426317534,-0.0130597404\C,-4.8337829662,-0.3305784539,-0.105089929\S
 ,-4.8806180049,1.433623526,0.0098675922\C,-6.6433989535,1.4221203596,-
 0.0236113793\C,-7.1249318628,0.1062603795,-0.1199145907\N,-6.096590846
 9,-0.8419423616,-0.1883119011\C,-7.5052114796,2.513933237,0.0382130527
 \C,-8.8791066796,2.2694718526,0.0093059117\C,-9.366895849,0.9590327316
 ,-0.0764581883\C,-8.5034139749,-0.1342297838,-0.1401733918\C,-6.369332
 1848,-2.2873995625,-0.3113632217\C,-6.4874026001,-2.9830992824,1.04189
 51023\C,1.2918518171,-1.3139791596,0.0131868951\C,2.5130899659,-0.6341
 943342,0.0413994657\C,3.7508200915,-1.2815162387,0.0381262295\C,5.0511
 706766,-0.7590123358,0.0554540851\S,6.3860435871,-1.874254398,-0.26241
 49238\C,7.5649964177,-0.5809818666,-0.1011036853\C,6.9168640431,0.6324
 328636,0.1812780818\N,5.5235400109,0.4985458297,0.288568573\C,8.950715
 4004,-0.6588230997,-0.2224548977\C,9.6910063807,0.5125293917,-0.062391
 703\C,9.0502113026,1.7284269886,0.2113696215\C,7.6637249917,1.80595972
 74,0.3354878691\C,4.6883449523,1.6413733252,0.7082230348\C,4.237645226
 7,2.5135890239,-0.4608347923\H,-3.7367753897,-2.1564975605,-0.11889299
 4\H,-2.2690259536,0.5687033255,-0.0500821867\H,-1.2456192656,-2.340448
 6096,-0.0562166354\H,0.0954423858,0.448439013,-0.0067538536\H,-7.11910
 33027,3.5261759069,0.1091329864\H,-9.5717774811,3.1043474573,0.0577318
 481\H,-10.4385961119,0.7837219751,-0.0911682187\H,-8.8993942323,-1.141
 7115393,-0.197529756\H,-7.2903859921,-2.388860537,-0.8883681653\H,-5.5
 730787709,-2.7239664736,-0.9164713373\H,-6.6969450616,-4.046679025,0.8
 82915711\H,-5.5581525491,-2.8974349233,1.6146684724\H,-7.3028114161,-2
 .5575713215,1.6361549648\H,1.2954061567,-2.4037961125,0.011470355\H,2.
 4575867689,0.4492890707,0.0313271801\H,3.7174983996,-2.3669641143,-0.0
 367151757\H,9.4391304335,-1.6044271318,-0.4368538319\H,10.7723487671,0
 .4784648566,-0.1550273983\H,9.6398223177,2.6330492644,0.3270234115\H,7
 .1839256516,2.7568421852,0.5372645291\H,3.8452258308,1.2405926497,1.27
 17010919\H,5.2850848438,2.2212323712,1.4156506512\H,3.6512686094,1.944
 114851,-1.189169236\H,3.6161119702,3.3315511254,-0.0801396647\H,5.0978
 753418,2.9490854233,-0.9795804088\\Version=ES64L-G16RevC.02\State=1-A\
 HF=-1873.4709073\RMSD=8.665e-09\RMSF=2.614e-06\Dipole=-0.4304712,0.150
 2565,0.164668\Quadrupole=101.6245829,-34.541055,-67.083528,20.0446472,
 3.8119792,3.4798635\PG=C01 [X(C25H25N2S2)]\\@
 The archive entry for this job was punched.


 LENDING MONEY TO FRIENDS CAUSES THEM TO LOSE THEIR MEMORIES.

    --  PETER'S THEORY OF RECIPROCAL INHIBITION OF FISCAL RECALL
 Job cpu time:       0 days  2 hours 55 minutes 55.2 seconds.
 Elapsed time:       0 days  0 hours  7 minutes  4.7 seconds.
 File lengths (MBytes):  RWF=    688 Int=      0 D2E=      0 Chk=     48 Scr=     32
 Normal termination of Gaussian 16 at Mon Nov  6 21:36:26 2023.
