 Entering Link 1 = D:\G09W\l1.exe PID=     10936.
  
 Copyright (c) 1988,1990,1992,1993,1995,1998,2003,2009, Gaussian, Inc.
                  All Rights Reserved.
  
 This is part of the Gaussian(R) 09 program.  It is based on
 the Gaussian(R) 03 system (copyright 2003, Gaussian, Inc.),
 the Gaussian(R) 98 system (copyright 1998, Gaussian, Inc.),
 the Gaussian(R) 94 system (copyright 1995, Gaussian, Inc.),
 the Gaussian 92(TM) system (copyright 1992, Gaussian, Inc.),
 the Gaussian 90(TM) system (copyright 1990, Gaussian, Inc.),
 the Gaussian 88(TM) system (copyright 1988, Gaussian, Inc.),
 the Gaussian 86(TM) system (copyright 1986, Carnegie Mellon
 University), and the Gaussian 82(TM) system (copyright 1983,
 Carnegie Mellon University). Gaussian is a federally registered
 trademark of Gaussian, Inc.
  
 This software contains proprietary and confidential information,
 including trade secrets, belonging to Gaussian, Inc.
  
 This software is provided under written license and may be
 used, copied, transmitted, or stored only in accord with that
 written license.
  
 The following legend is applicable only to US Government
 contracts under FAR:
  
                    RESTRICTED RIGHTS LEGEND
  
 Use, reproduction and disclosure by the US Government is
 subject to restrictions as set forth in subparagraphs (a)
 and (c) of the Commercial Computer Software - Restricted
 Rights clause in FAR 52.227-19.
  
 Gaussian, Inc.
 340 Quinnipiac St., Bldg. 40, Wallingford CT 06492
  
  
 ---------------------------------------------------------------
 Warning -- This program may not be used in any manner that
 competes with the business of Gaussian, Inc. or will provide
 assistance to any competitor of Gaussian, Inc.  The licensee
 of this program is prohibited from giving any competitor of
 Gaussian, Inc. access to this program.  By using this program,
 the user acknowledges that Gaussian, Inc. is engaged in the
 business of creating and licensing software in the field of
 computational chemistry and represents and warrants to the
 licensee that it is not a competitor of Gaussian, Inc. and that
 it will not use this program in any manner prohibited above.
 ---------------------------------------------------------------
  

 Cite this work as:
 Gaussian 09, Revision A.02,
 M. J. Frisch, G. W. Trucks, H. B. Schlegel, G. E. Scuseria, 
 M. A. Robb, J. R. Cheeseman, G. Scalmani, V. Barone, B. Mennucci, 
 G. A. Petersson, H. Nakatsuji, M. Caricato, X. Li, H. P. Hratchian, 
 A. F. Izmaylov, J. Bloino, G. Zheng, J. L. Sonnenberg, M. Hada, 
 M. Ehara, K. Toyota, R. Fukuda, J. Hasegawa, M. Ishida, T. Nakajima, 
 Y. Honda, O. Kitao, H. Nakai, T. Vreven, J. A. Montgomery, Jr., 
 J. E. Peralta, F. Ogliaro, M. Bearpark, J. J. Heyd, E. Brothers, 
 K. N. Kudin, V. N. Staroverov, R. Kobayashi, J. Normand, 
 K. Raghavachari, A. Rendell, J. C. Burant, S. S. Iyengar, J. Tomasi, 
 M. Cossi, N. Rega, J. M. Millam, M. Klene, J. E. Knox, J. B. Cross, 
 V. Bakken, C. Adamo, J. Jaramillo, R. Gomperts, R. E. Stratmann, 
 O. Yazyev, A. J. Austin, R. Cammi, C. Pomelli, J. W. Ochterski, 
 R. L. Martin, K. Morokuma, V. G. Zakrzewski, G. A. Voth, 
 P. Salvador, J. J. Dannenberg, S. Dapprich, A. D. Daniels, 
 O. Farkas, J. B. Foresman, J. V. Ortiz, J. Cioslowski, 
 and D. J. Fox, Gaussian, Inc., Wallingford CT, 2009.
 
 ******************************************
 Gaussian 09:  IA32W-G09RevA.02 11-Jun-2009
                25-Oct-2023 
 ******************************************
 %nproc=4
 Will use up to    4 processors via shared memory.
 %mem=1175MB
 -----------------------
 # opt freq b3lyp/6-31g*
 -----------------------
 1/14=-1,18=20,19=15,26=3,38=1/1,3;
 2/9=110,12=2,17=6,18=5,40=1/2;
 3/5=1,6=6,7=1,11=2,16=1,25=1,30=1,71=1,74=-5/1,2,3;
 4//1;
 5/5=2,38=5/2;
 6/7=2,8=2,9=2,10=2,28=1/1;
 7//1,2,3,16;
 1/14=-1,18=20,19=15/3(2);
 2/9=110/2;
 99//99;
 2/9=110/2;
 3/5=1,6=6,7=1,11=2,16=1,25=1,30=1,71=1,74=-5/1,2,3;
 4/5=5,16=3/1;
 5/5=2,38=5/2;
 7//1,2,3,16;
 1/14=-1,18=20,19=15/3(-5);
 2/9=110/2;
 6/7=2,8=2,9=2,10=2,19=2,28=1/1;
 99/9=1/99;
 ---
 A-4
 ---
 Symbolic Z-matrix:
 Charge =  1 Multiplicity = 1
 C                    0    -8.88074  -0.77961  -0.15258 
 C                    0    -7.68249  -0.16537  -0.08936 
 C                    0    -6.51818  -0.84124  -0.093 
 C                    0    -5.31851  -0.23495  -0.03123 
 C                    0    -10.1032  -0.20915  -0.153 
 S                    0    -10.29359   1.24952  -0.06944 
 C                    0    -11.75342   1.2294   -0.0735 
 C                    0    -12.2139  -0.02413  -0.1611 
 N                    0    -11.22933  -0.87904  -0.21835 
 C                    0    -12.5814   2.28183  -0.00275 
 C                    0    -13.90542   2.05612  -0.01873 
 C                    0    -14.37868   0.80152  -0.10137 
 C                    0    -13.53823  -0.24442  -0.17185 
 C                    0    -11.39566  -2.38578  -0.32955 
 C                    0    -11.39123  -3.03363   1.05928 
 C                    0    -4.15749  -0.91545  -0.03719 
 C                    0    -2.95285  -0.31527   0.02234 
 C                    0    -1.7939   -0.99993   0.00342 
 C                    0    -0.51124  -0.57503   0.05646 
 S                    0     0.52991  -1.61918  -0.03177 
 C                    0     1.68824  -0.72744   0.00235 
 C                    0     1.31949   0.55337   0.13691 
 N                    0     0.05126   0.55919   0.17983 
 C                    0     2.98032  -1.07878  -0.07416 
 C                    0     3.91154  -0.11244  -0.01692 
 C                    0     3.54868   1.17418   0.11678 
 C                    0     2.25186   1.51762   0.19535 
 C                    0    -0.65895   1.84066   0.37887 
 C                    0    -1.04162   2.49693  -0.95343 
 H                    0    -8.84047  -1.88026  -0.20529 
 H                    0    -7.62807   0.93453  -0.03227 
 H                    0    -6.54551  -1.94362  -0.14992 
 H                    0    -5.2861    0.86722   0.0257 
 H                    0    -12.20457   3.31655   0.06837 
 H                    0    -14.60741   2.90495   0.03945 
 H                    0    -15.46829   0.62892  -0.10879 
 H                    0    -13.95523  -1.26135  -0.23151 
 H                    0    -12.34227  -2.63789  -0.85901 
 H                    0    -10.60414  -2.8285   -0.97497 
 H                    0    -11.51805  -4.13825   0.98718 
 H                    0    -10.43472  -2.83496   1.59401 
 H                    0    -12.22141  -2.63432   1.68584 
 H                    0    -4.2027   -2.01722  -0.09485 
 H                    0    -2.96238   0.77901   0.07284 
 H                    0    -1.9571   -2.09485  -0.08115 
 H                    0     3.29305  -2.13165  -0.18113 
 H                    0     4.98056  -0.37704  -0.07975 
 H                    0     4.3249    1.95708   0.15931 
 H                    0     1.99428   2.58289   0.29434 
 H                    0    -1.51986   1.72104   1.06884 
 H                    0    -0.04277   2.56107   0.96333 
 H                    0    -1.66861   1.82619  -1.58216 
 H                    0    -1.61131   3.43987  -0.78685 
 H                    0    -0.13235   2.74893  -1.54588 
 

 GradGradGradGradGradGradGradGradGradGradGradGradGradGradGradGradGradGrad
 Berny optimization.
 Initialization pass.
                           ----------------------------
                           !    Initial Parameters    !
                           ! (Angstroms and Degrees)  !
 --------------------------                            --------------------------
 ! Name  Definition              Value          Derivative Info.                !
 --------------------------------------------------------------------------------
 ! R1    R(1,2)                  1.348          estimate D2E/DX2                !
 ! R2    R(1,5)                  1.349          estimate D2E/DX2                !
 ! R3    R(1,30)                 1.1026         estimate D2E/DX2                !
 ! R4    R(2,3)                  1.3463         estimate D2E/DX2                !
 ! R5    R(2,31)                 1.1027         estimate D2E/DX2                !
 ! R6    R(3,4)                  1.3456         estimate D2E/DX2                !
 ! R7    R(3,32)                 1.1042         estimate D2E/DX2                !
 ! R8    R(4,16)                 1.3458         estimate D2E/DX2                !
 ! R9    R(4,33)                 1.1041         estimate D2E/DX2                !
 ! R10   R(5,6)                  1.4734         estimate D2E/DX2                !
 ! R11   R(5,9)                  1.3119         estimate D2E/DX2                !
 ! R12   R(6,7)                  1.46           estimate D2E/DX2                !
 ! R13   R(7,8)                  1.3383         estimate D2E/DX2                !
 ! R14   R(7,10)                 1.341          estimate D2E/DX2                !
 ! R15   R(8,9)                  1.3052         estimate D2E/DX2                !
 ! R16   R(8,13)                 1.3426         estimate D2E/DX2                !
 ! R17   R(9,14)                 1.52           estimate D2E/DX2                !
 ! R18   R(10,11)                1.3432         estimate D2E/DX2                !
 ! R19   R(10,34)                1.1035         estimate D2E/DX2                !
 ! R20   R(11,12)                1.3434         estimate D2E/DX2                !
 ! R21   R(11,35)                1.103          estimate D2E/DX2                !
 ! R22   R(12,13)                1.3436         estimate D2E/DX2                !
 ! R23   R(12,36)                1.1032         estimate D2E/DX2                !
 ! R24   R(13,37)                1.1007         estimate D2E/DX2                !
 ! R25   R(14,15)                1.5325         estimate D2E/DX2                !
 ! R26   R(14,38)                1.1135         estimate D2E/DX2                !
 ! R27   R(14,39)                1.1131         estimate D2E/DX2                !
 ! R28   R(15,40)                1.1142         estimate D2E/DX2                !
 ! R29   R(15,41)                1.1137         estimate D2E/DX2                !
 ! R30   R(15,42)                1.1141         estimate D2E/DX2                !
 ! R31   R(16,17)                1.3472         estimate D2E/DX2                !
 ! R32   R(16,43)                1.1042         estimate D2E/DX2                !
 ! R33   R(17,18)                1.3462         estimate D2E/DX2                !
 ! R34   R(17,44)                1.0955         estimate D2E/DX2                !
 ! R35   R(18,19)                1.3522         estimate D2E/DX2                !
 ! R36   R(18,45)                1.1102         estimate D2E/DX2                !
 ! R37   R(19,20)                1.4772         estimate D2E/DX2                !
 ! R38   R(19,23)                1.272          estimate D2E/DX2                !
 ! R39   R(20,21)                1.4622         estimate D2E/DX2                !
 ! R40   R(21,22)                1.3396         estimate D2E/DX2                !
 ! R41   R(21,24)                1.3412         estimate D2E/DX2                !
 ! R42   R(22,23)                1.269          estimate D2E/DX2                !
 ! R43   R(22,27)                1.3426         estimate D2E/DX2                !
 ! R44   R(23,28)                1.4786         estimate D2E/DX2                !
 ! R45   R(24,25)                1.3432         estimate D2E/DX2                !
 ! R46   R(24,46)                1.1035         estimate D2E/DX2                !
 ! R47   R(25,26)                1.3435         estimate D2E/DX2                !
 ! R48   R(25,47)                1.1031         estimate D2E/DX2                !
 ! R49   R(26,27)                1.3438         estimate D2E/DX2                !
 ! R50   R(26,48)                1.1033         estimate D2E/DX2                !
 ! R51   R(27,49)                1.1004         estimate D2E/DX2                !
 ! R52   R(28,29)                1.5337         estimate D2E/DX2                !
 ! R53   R(28,50)                1.1097         estimate D2E/DX2                !
 ! R54   R(28,51)                1.1137         estimate D2E/DX2                !
 ! R55   R(29,52)                1.1128         estimate D2E/DX2                !
 ! R56   R(29,53)                1.1142         estimate D2E/DX2                !
 ! R57   R(29,54)                1.1141         estimate D2E/DX2                !
 ! A1    A(2,1,5)              127.7955         estimate D2E/DX2                !
 ! A2    A(2,1,30)             115.127          estimate D2E/DX2                !
 ! A3    A(5,1,30)             117.0769         estimate D2E/DX2                !
 ! A4    A(1,2,3)              122.6754         estimate D2E/DX2                !
 ! A5    A(1,2,31)             120.0528         estimate D2E/DX2                !
 ! A6    A(3,2,31)             117.2717         estimate D2E/DX2                !
 ! A7    A(2,3,4)              123.006          estimate D2E/DX2                !
 ! A8    A(2,3,32)             118.6819         estimate D2E/DX2                !
 ! A9    A(4,3,32)             118.3121         estimate D2E/DX2                !
 ! A10   A(3,4,16)             122.7601         estimate D2E/DX2                !
 ! A11   A(3,4,33)             118.5758         estimate D2E/DX2                !
 ! A12   A(16,4,33)            118.6641         estimate D2E/DX2                !
 ! A13   A(1,5,6)              122.3927         estimate D2E/DX2                !
 ! A14   A(1,5,9)              124.1898         estimate D2E/DX2                !
 ! A15   A(6,5,9)              113.4164         estimate D2E/DX2                !
 ! A16   A(5,6,7)               96.6266         estimate D2E/DX2                !
 ! A17   A(6,7,8)              110.9246         estimate D2E/DX2                !
 ! A18   A(6,7,10)             127.3313         estimate D2E/DX2                !
 ! A19   A(8,7,10)             121.7441         estimate D2E/DX2                !
 ! A20   A(7,8,9)              110.9057         estimate D2E/DX2                !
 ! A21   A(7,8,13)             119.5784         estimate D2E/DX2                !
 ! A22   A(9,8,13)             129.5149         estimate D2E/DX2                !
 ! A23   A(5,9,8)              108.1119         estimate D2E/DX2                !
 ! A24   A(5,9,14)             127.1384         estimate D2E/DX2                !
 ! A25   A(8,9,14)             124.7478         estimate D2E/DX2                !
 ! A26   A(7,10,11)            118.4321         estimate D2E/DX2                !
 ! A27   A(7,10,34)            121.9024         estimate D2E/DX2                !
 ! A28   A(11,10,34)           119.6655         estimate D2E/DX2                !
 ! A29   A(10,11,12)           120.3247         estimate D2E/DX2                !
 ! A30   A(10,11,35)           119.8269         estimate D2E/DX2                !
 ! A31   A(12,11,35)           119.8481         estimate D2E/DX2                !
 ! A32   A(11,12,13)           120.6531         estimate D2E/DX2                !
 ! A33   A(11,12,36)           119.6331         estimate D2E/DX2                !
 ! A34   A(13,12,36)           119.7136         estimate D2E/DX2                !
 ! A35   A(8,13,12)            119.2665         estimate D2E/DX2                !
 ! A36   A(8,13,37)            121.7166         estimate D2E/DX2                !
 ! A37   A(12,13,37)           119.016          estimate D2E/DX2                !
 ! A38   A(9,14,15)            110.6368         estimate D2E/DX2                !
 ! A39   A(9,14,38)            110.6247         estimate D2E/DX2                !
 ! A40   A(9,14,39)            111.0302         estimate D2E/DX2                !
 ! A41   A(15,14,38)           109.7336         estimate D2E/DX2                !
 ! A42   A(15,14,39)           110.8104         estimate D2E/DX2                !
 ! A43   A(38,14,39)           103.8127         estimate D2E/DX2                !
 ! A44   A(14,15,40)           111.1078         estimate D2E/DX2                !
 ! A45   A(14,15,41)           111.2356         estimate D2E/DX2                !
 ! A46   A(14,15,42)           110.8548         estimate D2E/DX2                !
 ! A47   A(40,15,41)           107.7986         estimate D2E/DX2                !
 ! A48   A(40,15,42)           107.8725         estimate D2E/DX2                !
 ! A49   A(41,15,42)           107.8198         estimate D2E/DX2                !
 ! A50   A(4,16,17)            123.0906         estimate D2E/DX2                !
 ! A51   A(4,16,43)            117.9989         estimate D2E/DX2                !
 ! A52   A(17,16,43)           118.9106         estimate D2E/DX2                !
 ! A53   A(16,17,18)           122.8609         estimate D2E/DX2                !
 ! A54   A(16,17,44)           116.0574         estimate D2E/DX2                !
 ! A55   A(18,17,44)           121.0756         estimate D2E/DX2                !
 ! A56   A(17,18,19)           131.0132         estimate D2E/DX2                !
 ! A57   A(17,18,45)           112.092          estimate D2E/DX2                !
 ! A58   A(19,18,45)           116.8913         estimate D2E/DX2                !
 ! A59   A(18,19,20)           116.366          estimate D2E/DX2                !
 ! A60   A(18,19,23)           134.7028         estimate D2E/DX2                !
 ! A61   A(20,19,23)           108.9286         estimate D2E/DX2                !
 ! A62   A(19,20,21)            97.231          estimate D2E/DX2                !
 ! A63   A(20,21,22)           111.5536         estimate D2E/DX2                !
 ! A64   A(20,21,24)           127.019          estimate D2E/DX2                !
 ! A65   A(22,21,24)           121.425          estimate D2E/DX2                !
 ! A66   A(21,22,23)           106.4325         estimate D2E/DX2                !
 ! A67   A(21,22,27)           119.993          estimate D2E/DX2                !
 ! A68   A(23,22,27)           133.5744         estimate D2E/DX2                !
 ! A69   A(19,23,22)           115.7584         estimate D2E/DX2                !
 ! A70   A(19,23,28)           124.9905         estimate D2E/DX2                !
 ! A71   A(22,23,28)           119.2474         estimate D2E/DX2                !
 ! A72   A(21,24,25)           118.4897         estimate D2E/DX2                !
 ! A73   A(21,24,46)           121.9031         estimate D2E/DX2                !
 ! A74   A(25,24,46)           119.6072         estimate D2E/DX2                !
 ! A75   A(24,25,26)           120.3956         estimate D2E/DX2                !
 ! A76   A(24,25,47)           119.7938         estimate D2E/DX2                !
 ! A77   A(26,25,47)           119.8107         estimate D2E/DX2                !
 ! A78   A(25,26,27)           120.7443         estimate D2E/DX2                !
 ! A79   A(25,26,48)           119.5637         estimate D2E/DX2                !
 ! A80   A(27,26,48)           119.6918         estimate D2E/DX2                !
 ! A81   A(22,27,26)           118.9522         estimate D2E/DX2                !
 ! A82   A(22,27,49)           122.4536         estimate D2E/DX2                !
 ! A83   A(26,27,49)           118.5907         estimate D2E/DX2                !
 ! A84   A(23,28,29)           111.9486         estimate D2E/DX2                !
 ! A85   A(23,28,50)           111.2785         estimate D2E/DX2                !
 ! A86   A(23,28,51)           111.4398         estimate D2E/DX2                !
 ! A87   A(29,28,50)           113.1205         estimate D2E/DX2                !
 ! A88   A(29,28,51)           108.4905         estimate D2E/DX2                !
 ! A89   A(50,28,51)            99.9428         estimate D2E/DX2                !
 ! A90   A(28,29,52)           111.9306         estimate D2E/DX2                !
 ! A91   A(28,29,53)           111.0903         estimate D2E/DX2                !
 ! A92   A(28,29,54)           110.799          estimate D2E/DX2                !
 ! A93   A(52,29,53)           107.8483         estimate D2E/DX2                !
 ! A94   A(52,29,54)           107.2011         estimate D2E/DX2                !
 ! A95   A(53,29,54)           107.78           estimate D2E/DX2                !
 ! D1    D(5,1,2,3)            179.8463         estimate D2E/DX2                !
 ! D2    D(5,1,2,31)            -0.1887         estimate D2E/DX2                !
 ! D3    D(30,1,2,3)             0.1426         estimate D2E/DX2                !
 ! D4    D(30,1,2,31)         -179.8925         estimate D2E/DX2                !
 ! D5    D(2,1,5,6)             -0.4744         estimate D2E/DX2                !
 ! D6    D(2,1,5,9)            179.948          estimate D2E/DX2                !
 ! D7    D(30,1,5,6)           179.2244         estimate D2E/DX2                !
 ! D8    D(30,1,5,9)            -0.3532         estimate D2E/DX2                !
 ! D9    D(1,2,3,4)            179.9457         estimate D2E/DX2                !
 ! D10   D(1,2,3,32)            -0.0098         estimate D2E/DX2                !
 ! D11   D(31,2,3,4)            -0.0202         estimate D2E/DX2                !
 ! D12   D(31,2,3,32)         -179.9756         estimate D2E/DX2                !
 ! D13   D(2,3,4,16)          -179.8988         estimate D2E/DX2                !
 ! D14   D(2,3,4,33)             0.0378         estimate D2E/DX2                !
 ! D15   D(32,3,4,16)            0.0568         estimate D2E/DX2                !
 ! D16   D(32,3,4,33)          179.9935         estimate D2E/DX2                !
 ! D17   D(3,4,16,17)          179.8962         estimate D2E/DX2                !
 ! D18   D(3,4,16,43)           -0.038          estimate D2E/DX2                !
 ! D19   D(33,4,16,17)          -0.0403         estimate D2E/DX2                !
 ! D20   D(33,4,16,43)        -179.9746         estimate D2E/DX2                !
 ! D21   D(1,5,6,7)           -178.452          estimate D2E/DX2                !
 ! D22   D(9,5,6,7)              1.1672         estimate D2E/DX2                !
 ! D23   D(1,5,9,8)            178.335          estimate D2E/DX2                !
 ! D24   D(1,5,9,14)            -1.1821         estimate D2E/DX2                !
 ! D25   D(6,5,9,8)             -1.2763         estimate D2E/DX2                !
 ! D26   D(6,5,9,14)           179.2066         estimate D2E/DX2                !
 ! D27   D(5,6,7,8)             -0.6656         estimate D2E/DX2                !
 ! D28   D(5,6,7,10)           179.3648         estimate D2E/DX2                !
 ! D29   D(6,7,8,9)              0.0052         estimate D2E/DX2                !
 ! D30   D(6,7,8,13)           179.6617         estimate D2E/DX2                !
 ! D31   D(10,7,8,9)           179.9767         estimate D2E/DX2                !
 ! D32   D(10,7,8,13)           -0.3667         estimate D2E/DX2                !
 ! D33   D(6,7,10,11)         -179.9055         estimate D2E/DX2                !
 ! D34   D(6,7,10,34)            0.0384         estimate D2E/DX2                !
 ! D35   D(8,7,10,11)            0.1279         estimate D2E/DX2                !
 ! D36   D(8,7,10,34)         -179.9282         estimate D2E/DX2                !
 ! D37   D(7,8,9,5)              0.7728         estimate D2E/DX2                !
 ! D38   D(7,8,9,14)          -179.6958         estimate D2E/DX2                !
 ! D39   D(13,8,9,5)          -178.8401         estimate D2E/DX2                !
 ! D40   D(13,8,9,14)            0.6914         estimate D2E/DX2                !
 ! D41   D(7,8,13,12)            0.3499         estimate D2E/DX2                !
 ! D42   D(7,8,13,37)         -179.3135         estimate D2E/DX2                !
 ! D43   D(9,8,13,12)          179.9341         estimate D2E/DX2                !
 ! D44   D(9,8,13,37)            0.2707         estimate D2E/DX2                !
 ! D45   D(5,9,14,15)           86.576          estimate D2E/DX2                !
 ! D46   D(5,9,14,38)         -151.6042         estimate D2E/DX2                !
 ! D47   D(5,9,14,39)          -36.8955         estimate D2E/DX2                !
 ! D48   D(8,9,14,15)          -92.8654         estimate D2E/DX2                !
 ! D49   D(8,9,14,38)           28.9545         estimate D2E/DX2                !
 ! D50   D(8,9,14,39)          143.6631         estimate D2E/DX2                !
 ! D51   D(7,10,11,12)           0.1222         estimate D2E/DX2                !
 ! D52   D(7,10,11,35)         179.9325         estimate D2E/DX2                !
 ! D53   D(34,10,11,12)       -179.823          estimate D2E/DX2                !
 ! D54   D(34,10,11,35)         -0.0127         estimate D2E/DX2                !
 ! D55   D(10,11,12,13)         -0.1327         estimate D2E/DX2                !
 ! D56   D(10,11,12,36)        179.7093         estimate D2E/DX2                !
 ! D57   D(35,11,12,13)       -179.9429         estimate D2E/DX2                !
 ! D58   D(35,11,12,36)         -0.1009         estimate D2E/DX2                !
 ! D59   D(11,12,13,8)          -0.106          estimate D2E/DX2                !
 ! D60   D(11,12,13,37)        179.5666         estimate D2E/DX2                !
 ! D61   D(36,12,13,8)        -179.9478         estimate D2E/DX2                !
 ! D62   D(36,12,13,37)         -0.2752         estimate D2E/DX2                !
 ! D63   D(9,14,15,40)         179.7055         estimate D2E/DX2                !
 ! D64   D(9,14,15,41)         -60.1931         estimate D2E/DX2                !
 ! D65   D(9,14,15,42)          59.7654         estimate D2E/DX2                !
 ! D66   D(38,14,15,40)         57.3632         estimate D2E/DX2                !
 ! D67   D(38,14,15,41)        177.4646         estimate D2E/DX2                !
 ! D68   D(38,14,15,42)        -62.5769         estimate D2E/DX2                !
 ! D69   D(39,14,15,40)        -56.6962         estimate D2E/DX2                !
 ! D70   D(39,14,15,41)         63.4052         estimate D2E/DX2                !
 ! D71   D(39,14,15,42)       -176.6364         estimate D2E/DX2                !
 ! D72   D(4,16,17,18)        -179.3579         estimate D2E/DX2                !
 ! D73   D(4,16,17,44)          -0.2513         estimate D2E/DX2                !
 ! D74   D(43,16,17,18)          0.5758         estimate D2E/DX2                !
 ! D75   D(43,16,17,44)        179.6824         estimate D2E/DX2                !
 ! D76   D(16,17,18,19)       -179.8559         estimate D2E/DX2                !
 ! D77   D(16,17,18,45)          0.8512         estimate D2E/DX2                !
 ! D78   D(44,17,18,19)          1.0812         estimate D2E/DX2                !
 ! D79   D(44,17,18,45)       -178.2116         estimate D2E/DX2                !
 ! D80   D(17,18,19,20)       -178.0818         estimate D2E/DX2                !
 ! D81   D(17,18,19,23)          2.583          estimate D2E/DX2                !
 ! D82   D(45,18,19,20)          1.1835         estimate D2E/DX2                !
 ! D83   D(45,18,19,23)       -178.1516         estimate D2E/DX2                !
 ! D84   D(18,19,20,21)        177.5697         estimate D2E/DX2                !
 ! D85   D(23,19,20,21)         -2.9298         estimate D2E/DX2                !
 ! D86   D(18,19,23,22)       -177.4879         estimate D2E/DX2                !
 ! D87   D(18,19,23,28)          3.2093         estimate D2E/DX2                !
 ! D88   D(20,19,23,22)          3.1418         estimate D2E/DX2                !
 ! D89   D(20,19,23,28)       -176.161          estimate D2E/DX2                !
 ! D90   D(19,20,21,22)          2.0481         estimate D2E/DX2                !
 ! D91   D(19,20,21,24)       -178.5132         estimate D2E/DX2                !
 ! D92   D(20,21,22,23)         -0.5153         estimate D2E/DX2                !
 ! D93   D(20,21,22,27)        179.6042         estimate D2E/DX2                !
 ! D94   D(24,21,22,23)       -179.9901         estimate D2E/DX2                !
 ! D95   D(24,21,22,27)          0.1294         estimate D2E/DX2                !
 ! D96   D(20,21,24,25)       -179.5856         estimate D2E/DX2                !
 ! D97   D(20,21,24,46)          0.3709         estimate D2E/DX2                !
 ! D98   D(22,21,24,25)         -0.1974         estimate D2E/DX2                !
 ! D99   D(22,21,24,46)        179.7591         estimate D2E/DX2                !
 ! D100  D(21,22,23,19)         -1.6879         estimate D2E/DX2                !
 ! D101  D(21,22,23,28)        177.6574         estimate D2E/DX2                !
 ! D102  D(27,22,23,19)        178.1692         estimate D2E/DX2                !
 ! D103  D(27,22,23,28)         -2.4854         estimate D2E/DX2                !
 ! D104  D(21,22,27,26)          0.0026         estimate D2E/DX2                !
 ! D105  D(21,22,27,49)        179.313          estimate D2E/DX2                !
 ! D106  D(23,22,27,26)       -179.8392         estimate D2E/DX2                !
 ! D107  D(23,22,27,49)         -0.5288         estimate D2E/DX2                !
 ! D108  D(19,23,28,29)        -87.9346         estimate D2E/DX2                !
 ! D109  D(19,23,28,50)         39.7464         estimate D2E/DX2                !
 ! D110  D(19,23,28,51)        150.3567         estimate D2E/DX2                !
 ! D111  D(22,23,28,29)         92.7851         estimate D2E/DX2                !
 ! D112  D(22,23,28,50)       -139.5339         estimate D2E/DX2                !
 ! D113  D(22,23,28,51)        -28.9237         estimate D2E/DX2                !
 ! D114  D(21,24,25,26)          0.1359         estimate D2E/DX2                !
 ! D115  D(21,24,25,47)       -179.8846         estimate D2E/DX2                !
 ! D116  D(46,24,25,26)       -179.8216         estimate D2E/DX2                !
 ! D117  D(46,24,25,47)          0.1579         estimate D2E/DX2                !
 ! D118  D(24,25,26,27)         -0.0083         estimate D2E/DX2                !
 ! D119  D(24,25,26,48)       -179.8183         estimate D2E/DX2                !
 ! D120  D(47,25,26,27)       -179.9878         estimate D2E/DX2                !
 ! D121  D(47,25,26,48)          0.2023         estimate D2E/DX2                !
 ! D122  D(25,26,27,22)         -0.062          estimate D2E/DX2                !
 ! D123  D(25,26,27,49)       -179.3992         estimate D2E/DX2                !
 ! D124  D(48,26,27,22)        179.7477         estimate D2E/DX2                !
 ! D125  D(48,26,27,49)          0.4104         estimate D2E/DX2                !
 ! D126  D(23,28,29,52)         57.0945         estimate D2E/DX2                !
 ! D127  D(23,28,29,53)        177.7188         estimate D2E/DX2                !
 ! D128  D(23,28,29,54)        -62.5061         estimate D2E/DX2                !
 ! D129  D(50,28,29,52)        -69.5956         estimate D2E/DX2                !
 ! D130  D(50,28,29,53)         51.0286         estimate D2E/DX2                !
 ! D131  D(50,28,29,54)        170.8038         estimate D2E/DX2                !
 ! D132  D(51,28,29,52)       -179.5179         estimate D2E/DX2                !
 ! D133  D(51,28,29,53)        -58.8936         estimate D2E/DX2                !
 ! D134  D(51,28,29,54)         60.8816         estimate D2E/DX2                !
 --------------------------------------------------------------------------------
 Trust Radius=3.00D-01 FncErr=1.00D-07 GrdErr=1.00D-06
 Number of steps in this run= 296 maximum allowed number of steps= 324.
 GradGradGradGradGradGradGradGradGradGradGradGradGradGradGradGradGradGrad

 Stoichiometry    C25H25N2S2(1+)
 Framework group  C1[X(C25H25N2S2)]
 Deg. of freedom   156
 Full point group                 C1      NOp   1
 Largest Abelian subgroup         C1      NOp   1
 Largest concise Abelian subgroup C1      NOp   1
                         Standard orientation:                         
 ---------------------------------------------------------------------
 Center     Atomic      Atomic             Coordinates (Angstroms)
 Number     Number       Type             X           Y           Z
 ---------------------------------------------------------------------
      1          6           0        3.513662    0.767622   -0.176441
      2          6           0        2.315598    0.158176   -0.074901
      3          6           0        1.150990    0.831732   -0.124395
      4          6           0       -0.048495    0.230127   -0.024814
      5          6           0        4.736382    0.199015   -0.137817
      6         16           0        4.927304   -1.250965    0.041227
      7          6           0        6.387132   -1.230354    0.037939
      8          6           0        6.847177    0.015013   -0.130788
      9          7           0        5.862306    0.863811   -0.245233
     10          6           0        7.215476   -2.275459    0.178548
     11          6           0        8.539413   -2.050560    0.149731
     12          6           0        9.012236   -0.803787   -0.014113
     13          6           0        8.171413    0.234843   -0.154040
     14          6           0        6.028122    2.360147   -0.454489
     15          6           0        6.021376    3.097424    0.888992
     16          6           0       -1.209811    0.908150   -0.076923
     17          6           0       -2.414269    0.312491    0.020018
     18          6           0       -3.573493    0.993825   -0.045285
     19          6           0       -4.856035    0.572603    0.033593
     20         16           0       -5.897523    1.608185   -0.124214
     21          6           0       -7.055504    0.719953   -0.033504
     22          6           0       -6.686380   -0.549114    0.185055
     23          7           0       -5.418206   -0.551424    0.230078
     24          6           0       -8.347626    1.064836   -0.134659
     25          6           0       -9.278494    0.103808   -0.015683
     26          6           0       -8.915259   -1.171119    0.202391
     27          6           0       -7.618400   -1.507979    0.305101
     28          6           0       -4.707710   -1.816752    0.513501
     29          6           0       -4.322807   -2.558529   -0.772478
     30          1           0        3.472977    1.862447   -0.301076
     31          1           0        2.261593   -0.935666    0.053920
     32          1           0        1.177909    1.928041   -0.253244
     33          1           0       -0.080492   -0.865973    0.104022
     34          1           0        6.839009   -3.303522    0.316647
     35          1           0        9.241698   -2.893389    0.264296
     36          1           0       10.101779   -0.631457   -0.031242
     37          1           0        8.588047    1.245924   -0.279473
     38          1           0        6.975388    2.577606   -0.997950
     39          1           0        5.237341    2.759274   -1.128605
     40          1           0        6.147808    4.195037    0.744988
     41          1           0        5.064180    2.933637    1.434206
     42          1           0        6.850824    2.740400    1.541510
     43          1           0       -1.165011    2.003812   -0.206442
     44          1           0       -2.404318   -0.776138    0.141987
     45          1           0       -3.410664    2.080960   -0.201048
     46          1           0       -8.660676    2.108294   -0.310706
     47          1           0      -10.347540    0.363147   -0.097202
     48          1           0       -9.691188   -1.949983    0.294920
     49          1           0       -7.360481   -2.564357    0.473908
     50          1           0       -3.847861   -1.651797    1.195401
     51          1           0       -5.324427   -2.497733    1.142944
     52          1           0       -3.695203   -1.930002   -1.442835
     53          1           0       -3.752944   -3.488256   -0.543782
     54          1           0       -5.231105   -2.849226   -1.348473
 ---------------------------------------------------------------------
 Rotational constants (GHZ):      0.5764140      0.0333427      0.0316936
 Standard basis: 6-31G(d) (6D, 7F)
 There are   493 symmetry adapted basis functions of A   symmetry.
 Integral buffers will be    262144 words long.
 Raffenetti 2 integral format.
 Two-electron integral symmetry is turned on.
   493 basis functions,   960 primitive gaussians,   493 cartesian basis functions
   110 alpha electrons      110 beta electrons
       nuclear repulsion energy      2724.9761471876 Hartrees.
 NAtoms=   54 NActive=   54 NUniq=   54 SFac= 7.50D-01 NAtFMM=   80 NAOKFM=F Big=F
 One-electron integrals computed using PRISM.
 NBasis=   493 RedAO= T  NBF=   493
 NBsUse=   493 1.00D-06 NBFU=   493
 Harris functional with IExCor=  402 diagonalized for initial guess.
 ExpMin= 1.17D-01 ExpMax= 2.19D+04 ExpMxC= 3.30D+03 IAcc=1 IRadAn=         1 AccDes= 0.00D+00
 HarFok:  IExCor=  402 AccDes= 0.00D+00 IRadAn=         1 IDoV= 1
 ScaDFX=  1.000000  1.000000  1.000000  1.000000
 FoFCou: FMM=F IPFlag=           0 FMFlag=      100000 FMFlg1=           0
         NFxFlg=           0 DoJE=T BraDBF=F KetDBF=T FulRan=T
         Omega=  0.000000  0.000000  1.000000  0.000000  0.000000 ICntrl=     500 IOpCl=  0
         NMat0=    1 NMatS0=    1 NMatT0=    0 NMatD0=    1 NMtDS0=    0 NMtDT0=    0
         I1Cent=           4 NGrid=           0.
 Petite list used in FoFCou.
 Initial guess orbital symmetries:
       Occupied  (A) (A) (A) (A) (A) (A) (A) (A) (A) (A) (A) (A)
                 (A) (A) (A) (A) (A) (A) (A) (A) (A) (A) (A) (A)
                 (A) (A) (A) (A) (A) (A) (A) (A) (A) (A) (A) (A)
                 (A) (A) (A) (A) (A) (A) (A) (A) (A) (A) (A) (A)
                 (A) (A) (A) (A) (A) (A) (A) (A) (A) (A) (A) (A)
                 (A) (A) (A) (A) (A) (A) (A) (A) (A) (A) (A) (A)
                 (A) (A) (A) (A) (A) (A) (A) (A) (A) (A) (A) (A)
                 (A) (A) (A) (A) (A) (A) (A) (A) (A) (A) (A) (A)
                 (A) (A) (A) (A) (A) (A) (A) (A) (A) (A) (A) (A)
                 (A) (A)
       Virtual   (A) (A) (A) (A) (A) (A) (A) (A) (A) (A) (A) (A)
                 (A) (A) (A) (A) (A) (A) (A) (A) (A) (A) (A) (A)
                 (A) (A) (A) (A) (A) (A) (A) (A) (A) (A) (A) (A)
                 (A) (A) (A) (A) (A) (A) (A) (A) (A) (A) (A) (A)
                 (A) (A) (A) (A) (A) (A) (A) (A) (A) (A) (A) (A)
                 (A) (A) (A) (A) (A) (A) (A) (A) (A) (A) (A) (A)
                 (A) (A) (A) (A) (A) (A) (A) (A) (A) (A) (A) (A)
                 (A) (A) (A) (A) (A) (A) (A) (A) (A) (A) (A) (A)
                 (A) (A) (A) (A) (A) (A) (A) (A) (A) (A) (A) (A)
                 (A) (A) (A) (A) (A) (A) (A) (A) (A) (A) (A) (A)
                 (A) (A) (A) (A) (A) (A) (A) (A) (A) (A) (A) (A)
                 (A) (A) (A) (A) (A) (A) (A) (A) (A) (A) (A) (A)
                 (A) (A) (A) (A) (A) (A) (A) (A) (A) (A) (A) (A)
                 (A) (A) (A) (A) (A) (A) (A) (A) (A) (A) (A) (A)
                 (A) (A) (A) (A) (A) (A) (A) (A) (A) (A) (A) (A)
                 (A) (A) (A) (A) (A) (A) (A) (A) (A) (A) (A) (A)
                 (A) (A) (A) (A) (A) (A) (A) (A) (A) (A) (A) (A)
                 (A) (A) (A) (A) (A) (A) (A) (A) (A) (A) (A) (A)
                 (A) (A) (A) (A) (A) (A) (A) (A) (A) (A) (A) (A)
                 (A) (A) (A) (A) (A) (A) (A) (A) (A) (A) (A) (A)
                 (A) (A) (A) (A) (A) (A) (A) (A) (A) (A) (A) (A)
                 (A) (A) (A) (A) (A) (A) (A) (A) (A) (A) (A) (A)
                 (A) (A) (A) (A) (A) (A) (A) (A) (A) (A) (A) (A)
                 (A) (A) (A) (A) (A) (A) (A) (A) (A) (A) (A) (A)
                 (A) (A) (A) (A) (A) (A) (A) (A) (A) (A) (A) (A)
                 (A) (A) (A) (A) (A) (A) (A) (A) (A) (A) (A) (A)
                 (A) (A) (A) (A) (A) (A) (A) (A) (A) (A) (A) (A)
                 (A) (A) (A) (A) (A) (A) (A) (A) (A) (A) (A) (A)
                 (A) (A) (A) (A) (A) (A) (A) (A) (A) (A) (A) (A)
                 (A) (A) (A) (A) (A) (A) (A) (A) (A) (A) (A) (A)
                 (A) (A) (A) (A) (A) (A) (A) (A) (A) (A) (A) (A)
                 (A) (A) (A) (A) (A) (A) (A) (A) (A) (A) (A)
 The electronic state of the initial guess is 1-A.
 Requested convergence on RMS density matrix=1.00D-08 within 128 cycles.
 Requested convergence on MAX density matrix=1.00D-06.
 Requested convergence on             energy=1.00D-06.
 No special actions if energy rises.
 Integral accuracy reduced to 1.0D-05 until final iterations.
 Initial convergence to 1.0D-05 achieved.  Increase integral accuracy.
 SCF Done:  E(RB3LYP) =  -1873.02949514     A.U. after   16 cycles
             Convg  =    0.8909D-08             -V/T =  2.0033

 **********************************************************************

            Population analysis using the SCF density.

 **********************************************************************

 Orbital symmetries:
       Occupied  (A) (A) (A) (A) (A) (A) (A) (A) (A) (A) (A) (A)
                 (A) (A) (A) (A) (A) (A) (A) (A) (A) (A) (A) (A)
                 (A) (A) (A) (A) (A) (A) (A) (A) (A) (A) (A) (A)
                 (A) (A) (A) (A) (A) (A) (A) (A) (A) (A) (A) (A)
                 (A) (A) (A) (A) (A) (A) (A) (A) (A) (A) (A) (A)
                 (A) (A) (A) (A) (A) (A) (A) (A) (A) (A) (A) (A)
                 (A) (A) (A) (A) (A) (A) (A) (A) (A) (A) (A) (A)
                 (A) (A) (A) (A) (A) (A) (A) (A) (A) (A) (A) (A)
                 (A) (A) (A) (A) (A) (A) (A) (A) (A) (A) (A) (A)
                 (A) (A)
       Virtual   (A) (A) (A) (A) (A) (A) (A) (A) (A) (A) (A) (A)
                 (A) (A) (A) (A) (A) (A) (A) (A) (A) (A) (A) (A)
                 (A) (A) (A) (A) (A) (A) (A) (A) (A) (A) (A) (A)
                 (A) (A) (A) (A) (A) (A) (A) (A) (A) (A) (A) (A)
                 (A) (A) (A) (A) (A) (A) (A) (A) (A) (A) (A) (A)
                 (A) (A) (A) (A) (A) (A) (A) (A) (A) (A) (A) (A)
                 (A) (A) (A) (A) (A) (A) (A) (A) (A) (A) (A) (A)
                 (A) (A) (A) (A) (A) (A) (A) (A) (A) (A) (A) (A)
                 (A) (A) (A) (A) (A) (A) (A) (A) (A) (A) (A) (A)
                 (A) (A) (A) (A) (A) (A) (A) (A) (A) (A) (A) (A)
                 (A) (A) (A) (A) (A) (A) (A) (A) (A) (A) (A) (A)
                 (A) (A) (A) (A) (A) (A) (A) (A) (A) (A) (A) (A)
                 (A) (A) (A) (A) (A) (A) (A) (A) (A) (A) (A) (A)
                 (A) (A) (A) (A) (A) (A) (A) (A) (A) (A) (A) (A)
                 (A) (A) (A) (A) (A) (A) (A) (A) (A) (A) (A) (A)
                 (A) (A) (A) (A) (A) (A) (A) (A) (A) (A) (A) (A)
                 (A) (A) (A) (A) (A) (A) (A) (A) (A) (A) (A) (A)
                 (A) (A) (A) (A) (A) (A) (A) (A) (A) (A) (A) (A)
                 (A) (A) (A) (A) (A) (A) (A) (A) (A) (A) (A) (A)
                 (A) (A) (A) (A) (A) (A) (A) (A) (A) (A) (A) (A)
                 (A) (A) (A) (A) (A) (A) (A) (A) (A) (A) (A) (A)
                 (A) (A) (A) (A) (A) (A) (A) (A) (A) (A) (A) (A)
                 (A) (A) (A) (A) (A) (A) (A) (A) (A) (A) (A) (A)
                 (A) (A) (A) (A) (A) (A) (A) (A) (A) (A) (A) (A)
                 (A) (A) (A) (A) (A) (A) (A) (A) (A) (A) (A) (A)
                 (A) (A) (A) (A) (A) (A) (A) (A) (A) (A) (A) (A)
                 (A) (A) (A) (A) (A) (A) (A) (A) (A) (A) (A) (A)
                 (A) (A) (A) (A) (A) (A) (A) (A) (A) (A) (A) (A)
                 (A) (A) (A) (A) (A) (A) (A) (A) (A) (A) (A) (A)
                 (A) (A) (A) (A) (A) (A) (A) (A) (A) (A) (A) (A)
                 (A) (A) (A) (A) (A) (A) (A) (A) (A) (A) (A) (A)
                 (A) (A) (A) (A) (A) (A) (A) (A) (A) (A) (A)
 The electronic state is 1-A.
 Alpha  occ. eigenvalues --  -88.99638 -88.99628 -14.50868 -14.50241 -10.34868
 Alpha  occ. eigenvalues --  -10.34742 -10.34430 -10.34271 -10.32395 -10.32063
 Alpha  occ. eigenvalues --  -10.29240 -10.29177 -10.29130 -10.28695 -10.28328
 Alpha  occ. eigenvalues --  -10.28270 -10.28215 -10.28171 -10.28063 -10.27728
 Alpha  occ. eigenvalues --  -10.27636 -10.27416 -10.27376 -10.27192 -10.27105
 Alpha  occ. eigenvalues --  -10.26811 -10.26598 -10.25626 -10.25590  -8.07795
 Alpha  occ. eigenvalues --   -8.07789  -6.04079  -6.04078  -6.03618  -6.03613
 Alpha  occ. eigenvalues --   -6.03347  -6.03330  -1.20372  -1.17754  -1.02460
 Alpha  occ. eigenvalues --   -1.01873  -0.98789  -0.97996  -0.93524  -0.92327
 Alpha  occ. eigenvalues --   -0.90251  -0.88321  -0.88055  -0.87265  -0.85499
 Alpha  occ. eigenvalues --   -0.84919  -0.83330  -0.79689  -0.76923  -0.76297
 Alpha  occ. eigenvalues --   -0.75947  -0.75650  -0.73839  -0.71952  -0.70127
 Alpha  occ. eigenvalues --   -0.69823  -0.67936  -0.65383  -0.65046  -0.63806
 Alpha  occ. eigenvalues --   -0.63151  -0.62218  -0.61830  -0.61038  -0.60492
 Alpha  occ. eigenvalues --   -0.60000  -0.57290  -0.56716  -0.56355  -0.55796
 Alpha  occ. eigenvalues --   -0.55470  -0.55195  -0.54252  -0.53073  -0.52879
 Alpha  occ. eigenvalues --   -0.52770  -0.51190  -0.51022  -0.50517  -0.48924
 Alpha  occ. eigenvalues --   -0.48751  -0.48214  -0.48057  -0.47682  -0.47547
 Alpha  occ. eigenvalues --   -0.47150  -0.46757  -0.45924  -0.45740  -0.45404
 Alpha  occ. eigenvalues --   -0.45319  -0.44750  -0.44370  -0.44193  -0.44094
 Alpha  occ. eigenvalues --   -0.43921  -0.43671  -0.43604  -0.41261  -0.38393
 Alpha  occ. eigenvalues --   -0.35682  -0.33758  -0.33408  -0.31154  -0.24625
 Alpha virt. eigenvalues --   -0.16624  -0.10951  -0.09174  -0.08638  -0.07282
 Alpha virt. eigenvalues --   -0.06853  -0.03951  -0.03783  -0.03589  -0.01912
 Alpha virt. eigenvalues --   -0.01612  -0.00136   0.00146   0.00825   0.01209
 Alpha virt. eigenvalues --    0.01386   0.02116   0.02445   0.02717   0.03070
 Alpha virt. eigenvalues --    0.03188   0.03868   0.04838   0.05079   0.05567
 Alpha virt. eigenvalues --    0.05697   0.06114   0.06367   0.07054   0.07359
 Alpha virt. eigenvalues --    0.07590   0.07784   0.07911   0.08595   0.08904
 Alpha virt. eigenvalues --    0.09157   0.10341   0.11130   0.11533   0.11865
 Alpha virt. eigenvalues --    0.12036   0.12549   0.12900   0.13800   0.15016
 Alpha virt. eigenvalues --    0.16774   0.17272   0.18409   0.18649   0.19874
 Alpha virt. eigenvalues --    0.21847   0.22132   0.24066   0.24276   0.24433
 Alpha virt. eigenvalues --    0.25209   0.25411   0.26521   0.27217   0.28307
 Alpha virt. eigenvalues --    0.29458   0.29839   0.30374   0.31217   0.32273
 Alpha virt. eigenvalues --    0.33618   0.34166   0.35003   0.36089   0.36685
 Alpha virt. eigenvalues --    0.38593   0.38896   0.40673   0.41148   0.41899
 Alpha virt. eigenvalues --    0.42091   0.42613   0.43186   0.43947   0.44402
 Alpha virt. eigenvalues --    0.44926   0.45385   0.45763   0.46164   0.46874
 Alpha virt. eigenvalues --    0.47248   0.47743   0.48711   0.49229   0.49406
 Alpha virt. eigenvalues --    0.49653   0.50389   0.50848   0.50973   0.51277
 Alpha virt. eigenvalues --    0.51321   0.51741   0.51849   0.52353   0.52586
 Alpha virt. eigenvalues --    0.52805   0.53107   0.53454   0.53562   0.53697
 Alpha virt. eigenvalues --    0.54655   0.54836   0.54906   0.55422   0.56153
 Alpha virt. eigenvalues --    0.56245   0.56769   0.57938   0.58546   0.58979
 Alpha virt. eigenvalues --    0.59664   0.60162   0.60530   0.62133   0.62394
 Alpha virt. eigenvalues --    0.63727   0.64035   0.64712   0.65452   0.66469
 Alpha virt. eigenvalues --    0.67125   0.69946   0.70558   0.70799   0.70826
 Alpha virt. eigenvalues --    0.71605   0.71954   0.72123   0.72250   0.72775
 Alpha virt. eigenvalues --    0.73836   0.74150   0.74413   0.74569   0.74864
 Alpha virt. eigenvalues --    0.75283   0.75945   0.76533   0.77302   0.77417
 Alpha virt. eigenvalues --    0.77762   0.78405   0.78897   0.79197   0.79737
 Alpha virt. eigenvalues --    0.80335   0.80955   0.82299   0.82670   0.83167
 Alpha virt. eigenvalues --    0.83763   0.83976   0.84671   0.85550   0.86106
 Alpha virt. eigenvalues --    0.86769   0.87145   0.87479   0.88359   0.88740
 Alpha virt. eigenvalues --    0.89608   0.90198   0.90833   0.92101   0.92661
 Alpha virt. eigenvalues --    0.93426   0.93581   0.93952   0.94282   0.95283
 Alpha virt. eigenvalues --    0.96168   0.97859   0.98558   0.99279   1.00565
 Alpha virt. eigenvalues --    1.02345   1.03304   1.04520   1.05236   1.06773
 Alpha virt. eigenvalues --    1.08220   1.09435   1.09959   1.11159   1.12078
 Alpha virt. eigenvalues --    1.13017   1.13271   1.13820   1.14197   1.16102
 Alpha virt. eigenvalues --    1.17974   1.19411   1.20648   1.21172   1.21890
 Alpha virt. eigenvalues --    1.23143   1.24094   1.24517   1.25211   1.25912
 Alpha virt. eigenvalues --    1.26562   1.27713   1.28829   1.30187   1.31669
 Alpha virt. eigenvalues --    1.32084   1.32443   1.33683   1.34401   1.34601
 Alpha virt. eigenvalues --    1.35409   1.35980   1.37112   1.38168   1.38993
 Alpha virt. eigenvalues --    1.39903   1.41165   1.41339   1.41656   1.45500
 Alpha virt. eigenvalues --    1.46489   1.47597   1.48786   1.50651   1.51876
 Alpha virt. eigenvalues --    1.53105   1.54678   1.56511   1.57092   1.58509
 Alpha virt. eigenvalues --    1.60094   1.61975   1.62714   1.64199   1.65438
 Alpha virt. eigenvalues --    1.65656   1.68381   1.69538   1.70218   1.71205
 Alpha virt. eigenvalues --    1.76353   1.78218   1.78809   1.79225   1.79710
 Alpha virt. eigenvalues --    1.80219   1.81042   1.81462   1.82498   1.83397
 Alpha virt. eigenvalues --    1.83525   1.85084   1.85939   1.86763   1.87109
 Alpha virt. eigenvalues --    1.87490   1.88021   1.88476   1.90388   1.91498
 Alpha virt. eigenvalues --    1.92925   1.94486   1.95232   1.96036   1.98174
 Alpha virt. eigenvalues --    1.99792   2.00866   2.01370   2.01962   2.03819
 Alpha virt. eigenvalues --    2.04168   2.04819   2.06851   2.08985   2.09270
 Alpha virt. eigenvalues --    2.09713   2.10997   2.11962   2.12598   2.14089
 Alpha virt. eigenvalues --    2.14652   2.15442   2.15893   2.16009   2.16716
 Alpha virt. eigenvalues --    2.17105   2.17979   2.18491   2.20330   2.21085
 Alpha virt. eigenvalues --    2.22207   2.22812   2.23528   2.23975   2.24948
 Alpha virt. eigenvalues --    2.25375   2.25944   2.26457   2.26573   2.30705
 Alpha virt. eigenvalues --    2.32011   2.32674   2.36031   2.37621   2.39757
 Alpha virt. eigenvalues --    2.41854   2.42934   2.43398   2.45641   2.47495
 Alpha virt. eigenvalues --    2.48474   2.49101   2.49636   2.50180   2.52718
 Alpha virt. eigenvalues --    2.53572   2.53995   2.56199   2.56294   2.59039
 Alpha virt. eigenvalues --    2.60519   2.62733   2.67009   2.68137   2.69380
 Alpha virt. eigenvalues --    2.69537   2.71211   2.72010   2.73347   2.73483
 Alpha virt. eigenvalues --    2.77963   2.79659   2.83965   2.84581   2.87210
 Alpha virt. eigenvalues --    2.88382   2.90152   2.92447   2.93622   2.99465
 Alpha virt. eigenvalues --    3.02411   3.07635   3.12938   3.17257   3.24826
 Alpha virt. eigenvalues --    3.28701   3.29129   3.52881   3.55697   3.90503
 Alpha virt. eigenvalues --    3.90953   3.99535   4.01920   4.03545   4.03953
 Alpha virt. eigenvalues --    4.05631   4.05817   4.06625   4.07175   4.07879
 Alpha virt. eigenvalues --    4.10135   4.12415   4.14418   4.18252   4.23813
 Alpha virt. eigenvalues --    4.24629   4.26895   4.31359   4.32729   4.34202
 Alpha virt. eigenvalues --    4.36289   4.42402   4.47437   4.53536   4.57503
 Alpha virt. eigenvalues --    4.60987   4.74652   4.75922
          Condensed to atoms (all electrons):
 Mulliken atomic charges:
              1
     1  C   -0.246855
     2  C   -0.105077
     3  C   -0.134835
     4  C   -0.105484
     5  C    0.226975
     6  S    0.249334
     7  C   -0.044861
     8  C    0.365906
     9  N   -0.529738
    10  C   -0.200240
    11  C   -0.106114
    12  C   -0.148651
    13  C   -0.153137
    14  C   -0.185786
    15  C   -0.452602
    16  C   -0.138424
    17  C   -0.077816
    18  C   -0.272569
    19  C    0.263511
    20  S    0.243755
    21  C   -0.071871
    22  C    0.374433
    23  N   -0.519357
    24  C   -0.196356
    25  C   -0.104772
    26  C   -0.151047
    27  C   -0.134684
    28  C   -0.215311
    29  C   -0.457400
    30  H    0.135533
    31  H    0.146287
    32  H    0.123673
    33  H    0.124655
    34  H    0.160304
    35  H    0.154572
    36  H    0.157782
    37  H    0.149308
    38  H    0.194776
    39  H    0.194739
    40  H    0.179552
    41  H    0.175091
    42  H    0.174918
    43  H    0.124880
    44  H    0.128289
    45  H    0.155082
    46  H    0.163462
    47  H    0.157097
    48  H    0.160683
    49  H    0.153241
    50  H    0.193491
    51  H    0.191800
    52  H    0.177187
    53  H    0.176746
    54  H    0.175927
 Sum of Mulliken atomic charges =   1.00000
 Mulliken charges with hydrogens summed into heavy atoms:
              1
     1  C   -0.111322
     2  C    0.041210
     3  C   -0.011161
     4  C    0.019171
     5  C    0.226975
     6  S    0.249334
     7  C   -0.044861
     8  C    0.365906
     9  N   -0.529738
    10  C   -0.039936
    11  C    0.048458
    12  C    0.009131
    13  C   -0.003830
    14  C    0.203730
    15  C    0.076959
    16  C   -0.013545
    17  C    0.050473
    18  C   -0.117487
    19  C    0.263511
    20  S    0.243755
    21  C   -0.071871
    22  C    0.374433
    23  N   -0.519357
    24  C   -0.032894
    25  C    0.052325
    26  C    0.009635
    27  C    0.018557
    28  C    0.169980
    29  C    0.072459
 Sum of Mulliken charges with hydrogens summed into heavy atoms =   1.00000
 Electronic spatial extent (au):  <R**2>=          30737.9904
 Charge=              1.0000 electrons
 Dipole moment (field-independent basis, Debye):
    X=              0.2513    Y=             -0.4391    Z=              0.1665  Tot=              0.5326
 Quadrupole moment (field-independent basis, Debye-Ang):
   XX=             38.5137   YY=           -147.5529   ZZ=           -183.8564
   XY=             15.8404   XZ=             -3.0236   YZ=             -4.3341
 Traceless Quadrupole moment (field-independent basis, Debye-Ang):
   XX=            136.1455   YY=            -49.9210   ZZ=            -86.2245
   XY=             15.8404   XZ=             -3.0236   YZ=             -4.3341
 Octapole moment (field-independent basis, Debye-Ang**2):
  XXX=             -9.8629  YYY=              0.3518  ZZZ=              0.6330  XYY=             37.2022
  XXY=             -5.8831  XXZ=             -0.6940  XZZ=             -0.1669  YZZ=              1.1187
  YYZ=              1.4722  XYZ=              0.2101
 Hexadecapole moment (field-independent basis, Debye-Ang**3):
 XXXX=         -24688.8125 YYYY=          -2224.4042 ZZZZ=           -329.0725 XXXY=            204.9248
 XXXZ=            -57.3542 YYYX=            110.1154 YYYZ=            -28.8535 ZZZX=             -0.8809
 ZZZY=             -1.1826 XXYY=          -5678.4606 XXZZ=          -6808.8510 YYZZ=           -468.3619
 XXYZ=           -186.3649 YYXZ=             -5.2840 ZZXY=             41.8808
 N-N= 2.724976147188D+03 E-N=-9.816082463748D+03  KE= 1.866776452875D+03
 Calling FoFJK, ICntrl=      2127 FMM=F ISym2X=0 I1Cent= 0 IOpClX= 0 NMat=1 NMatS=1 NMatT=0.
 ***** Axes restored to original set *****
 -------------------------------------------------------------------
 Center     Atomic                   Forces (Hartrees/Bohr)
 Number     Number              X              Y              Z
 -------------------------------------------------------------------
      1        6           0.018683455   -0.067215657   -0.003610304
      2        6          -0.007327692    0.041236003    0.001746240
      3        6          -0.002229210   -0.041131553   -0.002058762
      4        6           0.003014838    0.039632720    0.001982240
      5        6           0.075405808   -0.203036049   -0.011834995
      6       16           0.250787805    0.263215475    0.016558544
      7        6          -0.208474653    0.035771284    0.001496364
      8        6          -0.066436193   -0.017469899   -0.001448034
      9        7          -0.003048827   -0.104858029   -0.015517247
     10        6          -0.001999220    0.070094103    0.004501800
     11        6          -0.037230161    0.061323572    0.004132736
     12        6          -0.065449808   -0.018102677   -0.001205176
     13        6          -0.038102927   -0.064483534   -0.004187432
     14        6           0.001473863   -0.001028606   -0.002819393
     15        6           0.000694759   -0.002803134    0.012060703
     16        6          -0.002820348   -0.043201729   -0.002226965
     17        6           0.006770089    0.045263538    0.002423086
     18        6          -0.038278568   -0.035244852   -0.001339064
     19        6          -0.168875918    0.065141339    0.007116193
     20       16          -0.030547537   -0.364715955   -0.027431115
     21        6           0.195500058    0.084320600    0.001249264
     22        6           0.078494322    0.019732156   -0.001278895
     23        7          -0.108850142    0.160990936    0.027829050
     24        6           0.044828737   -0.056748533   -0.006285462
     25        6           0.066035578   -0.028126366   -0.004777945
     26        6           0.041232436    0.052304275    0.003537546
     27        6          -0.010032842    0.077134513    0.007156670
     28        6          -0.012106250    0.022341001    0.012136395
     29        6          -0.003941606    0.003287088   -0.011495910
     30        1          -0.001531488    0.009837873    0.000478927
     31        1          -0.000059301   -0.006520154   -0.000270603
     32        1          -0.000098416    0.008795849    0.000402926
     33        1          -0.000294492   -0.007558246   -0.000387116
     34        1          -0.000525149   -0.010914411   -0.000759872
     35        1           0.007082652   -0.007844833   -0.000535096
     36        1           0.010803074    0.000661753   -0.000011512
     37        1           0.005140496    0.007902469    0.000517046
     38        1           0.008909178    0.013220289    0.006103466
     39        1          -0.004619676    0.013203573    0.007830666
     40        1           0.001135558    0.012413974   -0.001250829
     41        1          -0.010154729   -0.002231225   -0.005793376
     42        1           0.008830667   -0.004596243   -0.006704460
     43        1           0.001004700    0.008431828    0.000621911
     44        1          -0.000043268   -0.005902401   -0.000501671
     45        1           0.010034880    0.011968737    0.001225008
     46        1          -0.005738343    0.009162543    0.000937818
     47        1          -0.010412321    0.002135485    0.000476244
     48        1          -0.008685195   -0.006819339   -0.000286916
     49        1          -0.000201549   -0.009704658   -0.000928724
     50        1           0.005700623   -0.008136902   -0.012177705
     51        1           0.003363966   -0.014810292   -0.009053980
     52        1           0.005811193    0.006721417    0.006948078
     53        1           0.006739041   -0.010514214   -0.000265140
     54        1          -0.009361950   -0.002524904    0.006974775
 -------------------------------------------------------------------
 Cartesian Forces:  Max     0.364715955 RMS     0.058831635

 GradGradGradGradGradGradGradGradGradGradGradGradGradGradGradGradGradGrad
 Berny optimization.
 Internal  Forces:  Max     0.288703309 RMS     0.041149978
 Search for a local minimum.
 Step number   1 out of a maximum of  296
 All quantities printed in internal units (Hartrees-Bohrs-Radians)
 Mixed Optimization -- RFO/linear search
 Second derivative matrix not updated -- first step.
     Eigenvalues ---    0.00230   0.00321   0.00336   0.00652   0.01717
     Eigenvalues ---    0.02262   0.02720   0.02759   0.02763   0.02770
     Eigenvalues ---    0.02777   0.02787   0.02788   0.02795   0.02797
     Eigenvalues ---    0.02800   0.02800   0.02804   0.02806   0.02807
     Eigenvalues ---    0.02809   0.02834   0.02836   0.02837   0.02838
     Eigenvalues ---    0.02838   0.02838   0.02842   0.02842   0.02849
     Eigenvalues ---    0.02850   0.02855   0.02856   0.02899   0.02950
     Eigenvalues ---    0.03049   0.03164   0.03196   0.03291   0.03302
     Eigenvalues ---    0.03357   0.03803   0.03839   0.03956   0.04018
     Eigenvalues ---    0.05273   0.05293   0.05384   0.05473   0.05500
     Eigenvalues ---    0.05509   0.09029   0.09505   0.12659   0.12967
     Eigenvalues ---    0.15999   0.15999   0.16000   0.16000   0.16000
     Eigenvalues ---    0.16000   0.16000   0.16000   0.16000   0.16000
     Eigenvalues ---    0.16000   0.16000   0.16000   0.16000   0.16000
     Eigenvalues ---    0.16000   0.16000   0.16000   0.16000   0.16000
     Eigenvalues ---    0.16000   0.21667   0.21781   0.22000   0.22000
     Eigenvalues ---    0.22000   0.22000   0.22000   0.22000   0.22000
     Eigenvalues ---    0.22000   0.22000   0.22608   0.22609   0.24520
     Eigenvalues ---    0.24521   0.24990   0.24993   0.24997   0.24998
     Eigenvalues ---    0.24999   0.24999   0.24999   0.25000   0.29088
     Eigenvalues ---    0.29194   0.30370   0.32158   0.32160   0.32167
     Eigenvalues ---    0.32169   0.32212   0.32214   0.32229   0.32270
     Eigenvalues ---    0.32306   0.32574   0.32627   0.33222   0.33224
     Eigenvalues ---    0.33232   0.33294   0.33298   0.33320   0.33328
     Eigenvalues ---    0.33345   0.33348   0.33383   0.33391   0.33602
     Eigenvalues ---    0.33634   0.34186   0.34733   0.46530   0.46703
     Eigenvalues ---    0.50224   0.50225   0.54503   0.54547   0.54737
     Eigenvalues ---    0.55231   0.55450   0.55623   0.55823   0.55836
     Eigenvalues ---    0.55932   0.55971   0.56418   0.56440   0.56566
     Eigenvalues ---    0.56570   0.56759   0.56798   0.59779   0.62916
     Eigenvalues ---    0.67725   0.72487   0.81433   0.81784   0.86923
     Eigenvalues ---    0.870291000.000001000.000001000.000001000.00000
     Eigenvalues --- 1000.000001000.000001000.000001000.000001000.00000
     Eigenvalues --- 1000.000001000.000001000.000001000.000001000.00000
     Eigenvalues --- 1000.000001000.000001000.000001000.000001000.00000
     Eigenvalues --- 1000.000001000.000001000.000001000.000001000.00000
     Eigenvalues --- 1000.000001000.000001000.000001000.000001000.00000
     Eigenvalues --- 1000.000001000.000001000.000001000.000001000.00000
     Eigenvalues --- 1000.000001000.000001000.000001000.000001000.00000
     Eigenvalues --- 1000.000001000.000001000.000001000.000001000.00000
     Eigenvalues --- 1000.000001000.000001000.000001000.000001000.00000
     Eigenvalues --- 1000.000001000.000001000.000001000.000001000.00000
     Eigenvalues --- 1000.000001000.000001000.000001000.000001000.00000
     Eigenvalues --- 1000.000001000.000001000.000001000.000001000.00000
     Eigenvalues --- 1000.000001000.000001000.000001000.000001000.00000
     Eigenvalues --- 1000.000001000.000001000.000001000.000001000.00000
     Eigenvalues --- 1000.000001000.000001000.000001000.000001000.00000
     Eigenvalues --- 1000.000001000.000001000.000001000.000001000.00000
     Eigenvalues --- 1000.000001000.000001000.000001000.000001000.00000
     Eigenvalues --- 1000.000001000.000001000.000001000.000001000.00000
     Eigenvalues --- 1000.000001000.000001000.000001000.000001000.00000
     Eigenvalues --- 1000.000001000.000001000.000001000.000001000.00000
     Eigenvalues --- 1000.000001000.000001000.000001000.000001000.00000
     Eigenvalues --- 1000.000001000.000001000.000001000.000001000.00000
     Eigenvalues --- 1000.000001000.000001000.000001000.000001000.00000
     Eigenvalues --- 1000.000001000.000001000.000001000.000001000.00000
     Eigenvalues --- 1000.000001000.000001000.000001000.000001000.00000
     Eigenvalues --- 1000.00000
 RFO step:  Lambda=-4.13610341D-01 EMin= 2.30000000D-03
 Linear search not attempted -- first point.
 Maximum step size (   0.300) exceeded in Quadratic search.
    -- Step size scaled by   0.499
 Iteration  1 RMS(Cart)=  0.08867891 RMS(Int)=  0.00021363
 Iteration  2 RMS(Cart)=  0.00046844 RMS(Int)=  0.00003407
 Iteration  3 RMS(Cart)=  0.00000012 RMS(Int)=  0.00003407
 Variable       Old X    -DE/DX   Delta X   Delta X   Delta X     New X
                                 (Linear)    (Quad)   (Total)
    R1        2.54734   0.05104   0.00000   0.02630   0.02630   2.57364
    R2        2.54927   0.07670   0.00000   0.03962   0.03962   2.58890
    R3        2.08370  -0.00990   0.00000  -0.00661  -0.00661   2.07709
    R4        2.54408   0.05736   0.00000   0.02945   0.02945   2.57353
    R5        2.08385  -0.00652   0.00000  -0.00435  -0.00435   2.07950
    R6        2.54279   0.05867   0.00000   0.03008   0.03008   2.57287
    R7        2.08660  -0.00880   0.00000  -0.00589  -0.00589   2.08072
    R8        2.54313   0.05684   0.00000   0.02915   0.02915   2.57228
    R9        2.08646  -0.00757   0.00000  -0.00507  -0.00507   2.08140
   R10        2.78435   0.25871   0.00000   0.10430   0.10440   2.88875
   R11        2.47921   0.09497   0.00000   0.04293   0.04292   2.52213
   R12        2.75896   0.28870   0.00000   0.11171   0.11178   2.87073
   R13        2.52902   0.09608   0.00000   0.04701   0.04696   2.57598
   R14        2.53404   0.07270   0.00000   0.03735   0.03737   2.57141
   R15        2.46645   0.12290   0.00000   0.05195   0.05183   2.51829
   R16        2.53707   0.06641   0.00000   0.03355   0.03355   2.57062
   R17        2.87232  -0.02931   0.00000  -0.02039  -0.02039   2.85194
   R18        2.53830   0.05313   0.00000   0.02735   0.02736   2.56566
   R19        2.08531  -0.01046   0.00000  -0.00699  -0.00699   2.07832
   R20        2.53875   0.06715   0.00000   0.03405   0.03404   2.57278
   R21        2.08444  -0.01057   0.00000  -0.00706  -0.00706   2.07738
   R22        2.53907   0.05623   0.00000   0.02823   0.02821   2.56729
   R23        2.08478  -0.01077   0.00000  -0.00720  -0.00720   2.07759
   R24        2.08007  -0.00928   0.00000  -0.00617  -0.00617   2.07390
   R25        2.89601  -0.00271   0.00000  -0.00191  -0.00191   2.89410
   R26        2.10427  -0.01347   0.00000  -0.00913  -0.00913   2.09514
   R27        2.10352  -0.01308   0.00000  -0.00886  -0.00886   2.09466
   R28        2.10556  -0.01235   0.00000  -0.00838  -0.00838   2.09718
   R29        2.10457  -0.01190   0.00000  -0.00807  -0.00807   2.09650
   R30        2.10535  -0.01200   0.00000  -0.00814  -0.00814   2.09721
   R31        2.54582   0.05914   0.00000   0.03043   0.03043   2.57625
   R32        2.08664  -0.00849   0.00000  -0.00568  -0.00568   2.08096
   R33        2.54397   0.05489   0.00000   0.02818   0.02818   2.57215
   R34        2.07017  -0.00592   0.00000  -0.00391  -0.00391   2.06626
   R35        2.55537   0.07527   0.00000   0.03916   0.03916   2.59453
   R36        2.09805  -0.01337   0.00000  -0.00902  -0.00902   2.08903
   R37        2.79145   0.27006   0.00000   0.10979   0.10988   2.90133
   R38        2.40380   0.14170   0.00000   0.06002   0.06000   2.46380
   R39        2.76321   0.27910   0.00000   0.10718   0.10724   2.87045
   R40        2.53149   0.10849   0.00000   0.05272   0.05268   2.58417
   R41        2.53446   0.07378   0.00000   0.03784   0.03785   2.57231
   R42        2.39801   0.17205   0.00000   0.06945   0.06935   2.46736
   R43        2.53709   0.06555   0.00000   0.03326   0.03326   2.57035
   R44        2.79410  -0.00226   0.00000  -0.00148  -0.00148   2.79262
   R45        2.53832   0.05124   0.00000   0.02624   0.02624   2.56456
   R46        2.08538  -0.01046   0.00000  -0.00699  -0.00699   2.07839
   R47        2.53881   0.06733   0.00000   0.03408   0.03407   2.57287
   R48        2.08450  -0.01063   0.00000  -0.00710  -0.00710   2.07740
   R49        2.53946   0.05652   0.00000   0.02847   0.02845   2.56792
   R50        2.08492  -0.01096   0.00000  -0.00732  -0.00732   2.07760
   R51        2.07952  -0.00943   0.00000  -0.00627  -0.00627   2.07324
   R52        2.89821  -0.00299   0.00000  -0.00212  -0.00212   2.89609
   R53        2.09712  -0.01112   0.00000  -0.00750  -0.00750   2.08962
   R54        2.10454  -0.01247   0.00000  -0.00846  -0.00846   2.09608
   R55        2.10288  -0.01125   0.00000  -0.00762  -0.00762   2.09526
   R56        2.10553  -0.01238   0.00000  -0.00840  -0.00840   2.09713
   R57        2.10540  -0.01192   0.00000  -0.00809  -0.00809   2.09731
    A1        2.23045  -0.00031   0.00000  -0.00025  -0.00025   2.23021
    A2        2.00935   0.00138   0.00000   0.00118   0.00118   2.01053
    A3        2.04338  -0.00106   0.00000  -0.00094  -0.00094   2.04244
    A4        2.14109   0.01339   0.00000   0.01054   0.01054   2.15163
    A5        2.09532  -0.00642   0.00000  -0.00503  -0.00503   2.09029
    A6        2.04678  -0.00697   0.00000  -0.00551  -0.00551   2.04127
    A7        2.14686   0.00786   0.00000   0.00619   0.00619   2.15305
    A8        2.07139  -0.00426   0.00000  -0.00338  -0.00338   2.06801
    A9        2.06494  -0.00360   0.00000  -0.00281  -0.00281   2.06213
   A10        2.14257   0.01490   0.00000   0.01173   0.01173   2.15430
   A11        2.06954  -0.00752   0.00000  -0.00593  -0.00593   2.06361
   A12        2.07108  -0.00737   0.00000  -0.00580  -0.00580   2.06528
   A13        2.13616   0.02352   0.00000   0.01713   0.01711   2.15326
   A14        2.16752   0.00012   0.00000  -0.00045  -0.00048   2.16704
   A15        1.97949  -0.02364   0.00000  -0.01668  -0.01662   1.96287
   A16        1.68645  -0.03480   0.00000  -0.00745  -0.00719   1.67926
   A17        1.93600  -0.00849   0.00000  -0.00364  -0.00365   1.93235
   A18        2.22235   0.01599   0.00000   0.01046   0.01046   2.23281
   A19        2.12484  -0.00750   0.00000  -0.00682  -0.00681   2.11802
   A20        1.93567   0.01444   0.00000   0.00030   0.00013   1.93580
   A21        2.08704  -0.00519   0.00000   0.00078   0.00085   2.08789
   A22        2.26046  -0.00925   0.00000  -0.00108  -0.00098   2.25948
   A23        1.88691   0.05251   0.00000   0.02748   0.02735   1.91426
   A24        2.21898  -0.02923   0.00000  -0.01598  -0.01591   2.20307
   A25        2.17726  -0.02328   0.00000  -0.01151  -0.01144   2.16582
   A26        2.06703   0.00324   0.00000   0.00292   0.00293   2.06996
   A27        2.12760  -0.00500   0.00000  -0.00440  -0.00440   2.12319
   A28        2.08856   0.00176   0.00000   0.00148   0.00148   2.09003
   A29        2.10006   0.00220   0.00000   0.00107   0.00105   2.10111
   A30        2.09137  -0.00158   0.00000  -0.00095  -0.00094   2.09044
   A31        2.09174  -0.00062   0.00000  -0.00012  -0.00011   2.09164
   A32        2.10579   0.00547   0.00000   0.00253   0.00249   2.10829
   A33        2.08799  -0.00165   0.00000  -0.00032  -0.00030   2.08769
   A34        2.08940  -0.00382   0.00000  -0.00221  -0.00219   2.08721
   A35        2.08159   0.00178   0.00000  -0.00047  -0.00051   2.08109
   A36        2.12436  -0.00272   0.00000  -0.00135  -0.00134   2.12302
   A37        2.07722   0.00094   0.00000   0.00183   0.00184   2.07906
   A38        1.93098   0.00800   0.00000   0.00613   0.00614   1.93712
   A39        1.93077  -0.00879   0.00000  -0.00817  -0.00818   1.92258
   A40        1.93784  -0.00744   0.00000  -0.00688  -0.00689   1.93095
   A41        1.91521   0.00261   0.00000   0.00308   0.00309   1.91830
   A42        1.93401   0.00120   0.00000   0.00179   0.00180   1.93580
   A43        1.81187   0.00402   0.00000   0.00379   0.00375   1.81562
   A44        1.93920  -0.00326   0.00000  -0.00289  -0.00289   1.93631
   A45        1.94143   0.00053   0.00000   0.00049   0.00049   1.94192
   A46        1.93478   0.00082   0.00000   0.00074   0.00074   1.93552
   A47        1.88144   0.00116   0.00000   0.00097   0.00097   1.88241
   A48        1.88273   0.00090   0.00000   0.00073   0.00073   1.88346
   A49        1.88181  -0.00005   0.00000   0.00006   0.00006   1.88187
   A50        2.14834   0.00773   0.00000   0.00608   0.00608   2.15442
   A51        2.05947  -0.00317   0.00000  -0.00244  -0.00244   2.05703
   A52        2.07538  -0.00455   0.00000  -0.00364  -0.00364   2.07174
   A53        2.14433   0.00901   0.00000   0.00710   0.00710   2.15143
   A54        2.02558  -0.00461   0.00000  -0.00364  -0.00364   2.02195
   A55        2.11317  -0.00441   0.00000  -0.00346  -0.00346   2.10971
   A56        2.28661   0.00832   0.00000   0.00655   0.00655   2.29316
   A57        1.95637   0.00440   0.00000   0.00417   0.00417   1.96054
   A58        2.04014  -0.01272   0.00000  -0.01072  -0.01072   2.02942
   A59        2.03097   0.02109   0.00000   0.01407   0.01405   2.04502
   A60        2.35101  -0.01880   0.00000  -0.01592  -0.01595   2.33506
   A61        1.90116  -0.00228   0.00000   0.00185   0.00191   1.90307
   A62        1.69700  -0.02967   0.00000  -0.00935  -0.00911   1.68789
   A63        1.94698  -0.00810   0.00000  -0.00706  -0.00707   1.93991
   A64        2.21690   0.01323   0.00000   0.01042   0.01042   2.22732
   A65        2.11927  -0.00512   0.00000  -0.00336  -0.00335   2.11592
   A66        1.85760   0.03858   0.00000   0.01981   0.01965   1.87725
   A67        2.09427  -0.01120   0.00000  -0.00436  -0.00428   2.08999
   A68        2.33131  -0.02737   0.00000  -0.01545  -0.01537   2.31595
   A69        2.02037   0.00157   0.00000  -0.00515  -0.00527   2.01510
   A70        2.18150  -0.00534   0.00000  -0.00085  -0.00080   2.18070
   A71        2.08126   0.00378   0.00000   0.00600   0.00606   2.08732
   A72        2.06804   0.00243   0.00000   0.00172   0.00171   2.06975
   A73        2.12761  -0.00423   0.00000  -0.00348  -0.00348   2.12413
   A74        2.08754   0.00180   0.00000   0.00176   0.00177   2.08930
   A75        2.10130   0.00222   0.00000   0.00054   0.00051   2.10181
   A76        2.09080  -0.00156   0.00000  -0.00067  -0.00065   2.09014
   A77        2.09109  -0.00065   0.00000   0.00013   0.00014   2.09123
   A78        2.10739   0.00780   0.00000   0.00417   0.00413   2.11151
   A79        2.08678  -0.00247   0.00000  -0.00084  -0.00082   2.08596
   A80        2.08902  -0.00533   0.00000  -0.00333  -0.00331   2.08571
   A81        2.07611   0.00388   0.00000   0.00130   0.00128   2.07738
   A82        2.13722  -0.00451   0.00000  -0.00289  -0.00288   2.13434
   A83        2.06980   0.00064   0.00000   0.00159   0.00160   2.07140
   A84        1.95387   0.00775   0.00000   0.00577   0.00578   1.95965
   A85        1.94218  -0.00538   0.00000  -0.00490  -0.00491   1.93727
   A86        1.94499  -0.00956   0.00000  -0.00882  -0.00882   1.93617
   A87        1.97432  -0.00251   0.00000  -0.00176  -0.00175   1.97258
   A88        1.89352   0.00274   0.00000   0.00312   0.00313   1.89664
   A89        1.74433   0.00639   0.00000   0.00629   0.00628   1.75061
   A90        1.95356   0.00005   0.00000   0.00008   0.00008   1.95363
   A91        1.93889  -0.00231   0.00000  -0.00207  -0.00207   1.93682
   A92        1.93381  -0.00035   0.00000  -0.00028  -0.00029   1.93352
   A93        1.88231   0.00102   0.00000   0.00086   0.00086   1.88316
   A94        1.87101   0.00081   0.00000   0.00080   0.00080   1.87181
   A95        1.88112   0.00096   0.00000   0.00077   0.00077   1.88188
    D1        3.13891   0.00004   0.00000   0.00004   0.00004   3.13895
    D2       -0.00329   0.00006   0.00000   0.00007   0.00007  -0.00323
    D3        0.00249  -0.00003   0.00000  -0.00004  -0.00004   0.00245
    D4       -3.13972  -0.00001   0.00000  -0.00001  -0.00001  -3.13973
    D5       -0.00828  -0.00023   0.00000  -0.00021  -0.00021  -0.00849
    D6        3.14069  -0.00004   0.00000  -0.00009  -0.00009   3.14059
    D7        3.12806  -0.00015   0.00000  -0.00013  -0.00012   3.12793
    D8       -0.00616   0.00004   0.00000   0.00000   0.00000  -0.00617
    D9        3.14064  -0.00001   0.00000  -0.00001  -0.00001   3.14063
   D10       -0.00017  -0.00002   0.00000  -0.00002  -0.00002  -0.00019
   D11       -0.00035  -0.00003   0.00000  -0.00003  -0.00003  -0.00039
   D12       -3.14117  -0.00004   0.00000  -0.00004  -0.00004  -3.14121
   D13       -3.13983  -0.00010   0.00000  -0.00012  -0.00012  -3.13994
   D14        0.00066  -0.00004   0.00000  -0.00004  -0.00004   0.00062
   D15        0.00099  -0.00010   0.00000  -0.00011  -0.00011   0.00088
   D16        3.14148  -0.00003   0.00000  -0.00004  -0.00004   3.14144
   D17        3.13978   0.00007   0.00000   0.00008   0.00008   3.13986
   D18       -0.00066  -0.00002   0.00000  -0.00002  -0.00002  -0.00069
   D19       -0.00070   0.00000   0.00000   0.00001   0.00001  -0.00070
   D20       -3.14115  -0.00009   0.00000  -0.00010  -0.00010  -3.14125
   D21       -3.11458  -0.00091   0.00000  -0.00075  -0.00075  -3.11532
   D22        0.02037  -0.00102   0.00000  -0.00082  -0.00081   0.01956
   D23        3.11253   0.00025   0.00000   0.00045   0.00046   3.11299
   D24       -0.02063   0.00047   0.00000   0.00052   0.00052  -0.02011
   D25       -0.02228   0.00026   0.00000   0.00044   0.00044  -0.02183
   D26        3.12775   0.00048   0.00000   0.00051   0.00050   3.12825
   D27       -0.01162   0.00052   0.00000   0.00046   0.00046  -0.01116
   D28        3.13051   0.00054   0.00000   0.00040   0.00039   3.13090
   D29        0.00009   0.00009   0.00000  -0.00010  -0.00011  -0.00002
   D30        3.13569   0.00011   0.00000  -0.00004  -0.00004   3.13565
   D31        3.14119   0.00007   0.00000  -0.00004  -0.00004   3.14114
   D32       -0.00640   0.00010   0.00000   0.00003   0.00003  -0.00637
   D33       -3.13994  -0.00005   0.00000   0.00006   0.00006  -3.13988
   D34        0.00067  -0.00004   0.00000   0.00004   0.00005   0.00072
   D35        0.00223  -0.00003   0.00000  -0.00001  -0.00001   0.00222
   D36       -3.14034  -0.00002   0.00000  -0.00003  -0.00003  -3.14037
   D37        0.01349   0.00028   0.00000   0.00004   0.00004   0.01352
   D38       -3.13628   0.00001   0.00000  -0.00005  -0.00006  -3.13634
   D39       -3.12135   0.00022   0.00000  -0.00005  -0.00005  -3.12140
   D40        0.01207  -0.00005   0.00000  -0.00014  -0.00014   0.01192
   D41        0.00611  -0.00007   0.00000   0.00000   0.00000   0.00610
   D42       -3.12961  -0.00005   0.00000  -0.00001  -0.00001  -3.12962
   D43        3.14044   0.00006   0.00000   0.00009   0.00009   3.14053
   D44        0.00472   0.00008   0.00000   0.00008   0.00008   0.00481
   D45        1.51104  -0.00005   0.00000   0.00003   0.00003   1.51107
   D46       -2.64599   0.00272   0.00000   0.00254   0.00252  -2.64347
   D47       -0.64395  -0.00201   0.00000  -0.00176  -0.00174  -0.64569
   D48       -1.62081  -0.00012   0.00000  -0.00006  -0.00006  -1.62087
   D49        0.50535   0.00265   0.00000   0.00245   0.00242   0.50778
   D50        2.50739  -0.00208   0.00000  -0.00186  -0.00184   2.50556
   D51        0.00213  -0.00005   0.00000  -0.00004  -0.00004   0.00210
   D52        3.14041  -0.00001   0.00000  -0.00001  -0.00001   3.14040
   D53       -3.13850  -0.00006   0.00000  -0.00001  -0.00001  -3.13852
   D54       -0.00022  -0.00002   0.00000   0.00001   0.00001  -0.00021
   D55       -0.00232   0.00004   0.00000   0.00004   0.00003  -0.00228
   D56        3.13652   0.00002   0.00000   0.00002   0.00002   3.13653
   D57       -3.14060   0.00000   0.00000   0.00001   0.00001  -3.14058
   D58       -0.00176  -0.00002   0.00000  -0.00001  -0.00001  -0.00177
   D59       -0.00185  -0.00002   0.00000  -0.00002  -0.00002  -0.00187
   D60        3.13403  -0.00005   0.00000  -0.00003  -0.00003   3.13400
   D61       -3.14068   0.00000   0.00000  -0.00001  -0.00001  -3.14069
   D62       -0.00480  -0.00003   0.00000  -0.00002  -0.00002  -0.00482
   D63        3.13645  -0.00036   0.00000  -0.00036  -0.00036   3.13610
   D64       -1.05057  -0.00073   0.00000  -0.00075  -0.00075  -1.05132
   D65        1.04310   0.00011   0.00000   0.00015   0.00015   1.04325
   D66        1.00118   0.00363   0.00000   0.00378   0.00378   1.00496
[...]
 004229,-0.00000702,0.00052528,0.00017942,0.00011831,-0.00088990,-0.000
 02315,-0.09527332,-0.08645845,-0.15824212,-0.01669385,-0.01153224,-0.0
 1738230,-0.00000124,-0.00000062,-0.00000077,0.00000187,-0.00000009,-0.
 00000200,-0.00000153,-0.00000216,-0.00000339,-0.00000319,-0.00000018,-
 0.00000395,0.00000118,0.00000019,-0.00000022,-0.00000114,0.00000044,0.
 00000002,-0.00000134,0.00000022,-0.00000006,0.00000057,-0.00000092,0.0
 0000028,-0.00000243,-0.00000179,0.00000033,0.00000223,-0.00000041,0.00
 000031,-0.00000029,-0.00000235,0.00000168,0.00000011,0.00000124,-0.000
 00121,-0.00000047,0.00000115,-0.00000032,0.00004077,0.00002375,-0.0000
 1885,-0.00003541,0.00031404,-0.00016634,-0.00004572,-0.00000261,0.0000
 9836,-0.00001450,0.00001756,-0.00002259,-0.00003554,0.00007388,-0.0000
 0377,-0.00000530,-0.00002029,0.00002504,0.00091315,0.00096956,-0.00021
 122,0.00865460,0.00908224,0.01285818,0.10514623,0.09522743,0.16932285,
 -0.00004780,0.00001138,0.00000050,0.00004969,-0.00002578,0.00000292,-0
 .00008315,0.00004280,-0.00000097,0.00009872,-0.00011025,0.00000432,0.0
 0003644,-0.00002734,0.00000130,0.00000238,0.00000834,-0.00000032,-0.00
 001039,0.00000475,-0.00000019,0.00000334,-0.00000201,-0.00000009,-0.00
 001758,-0.00000371,-0.00000058,0.00000373,-0.00000362,0.00000031,-0.00
 000448,-0.00000153,0.00000019,-0.00000023,0.00000421,-0.00000002,0.000
 00219,0.00000064,0.00000046,0.00000118,0.00000417,-0.00000026,-0.00000
 023,-0.00000074,-0.00000056,-0.00011042,-0.00002615,0.00001464,-0.0000
 9604,-0.00038658,0.00035677,0.00006157,0.00015975,0.00002907,-0.000174
 98,0.00037170,-0.00028429,0.00001037,0.00010232,0.00001751,0.00002754,
 -0.00012814,-0.00006195,-0.00052099,-0.00000897,0.00013096,0.00057118,
 -0.00090772,0.00054256,-0.00008658,0.00003263,0.00001562,0.00000134,0.
 00006347,0.00002576,0.00009902,0.00007835,-0.00001833,-0.00000294,-0.0
 0015395,-0.00014145,-0.00605084,-0.00346245,-0.00647322,-0.13549108,-0
 .07768402,-0.09723062,0.00000099,0.00000107,-0.00000096,-0.00000612,0.
 00000321,-0.00000017,0.00001010,0.00000798,-0.00000338,-0.00003187,0.0
 0001801,0.00001198,-0.00000032,0.00000041,-0.00000033,-0.00000017,-0.0
 0000002,-0.00000021,-0.00000009,0.00000014,-0.00000022,0.00000040,0.00
 000002,-0.00000020,0.,-0.00000058,0.,0.00000014,-0.00000030,-0.0000004
 8,0.00000011,-0.00000016,0.00000031,0.00000032,0.00000001,-0.00000009,
 -0.00000032,0.00000011,0.,-0.00002002,0.00000406,-0.00001907,0.0000990
 8,-0.00073822,0.00035750,-0.00002515,0.00000811,0.00000835,-0.00000257
 ,0.00000435,-0.00000599,-0.00000725,0.00001701,0.00000530,0.00000765,-
 0.00000239,-0.00000804,0.00019566,0.00012085,0.00013030,0.00039264,0.0
 0041120,0.00054738,0.00054977,0.00123652,-0.00122875,0.14286443,0.0002
 0976,-0.00003939,0.00000597,-0.00020706,0.00006572,-0.00000445,0.00025
 007,-0.00007554,0.00001135,-0.00027900,0.00015066,-0.00001360,-0.00017
 860,0.00011265,-0.00001044,-0.00001449,-0.00004169,-0.00000052,0.00003
 415,-0.00001229,0.00000164,-0.00000471,0.00000733,-0.00000147,0.000087
 36,0.00002782,0.00000756,-0.00001397,0.00001821,0.00000061,0.00002261,
 0.00000897,0.00000036,0.00000297,-0.00002401,0.00000147,-0.00001438,-0
 .00000190,-0.00000051,-0.00000456,-0.00002989,-0.00000494,-0.00000152,
 0.00000556,0.00000310,0.00021619,-0.00002884,-0.00001223,-0.00054726,-
 0.00053767,0.00043183,0.00014856,-0.00023607,0.00007138,-0.00012402,-0
 .00029740,-0.00003134,-0.00006565,0.00002579,0.00003262,-0.00001615,0.
 00010814,0.00004524,0.00021373,0.00004149,-0.00015281,-0.00080764,0.00
 240231,-0.00054690,0.00001083,-0.00001341,0.00000912,-0.00001338,0.000
 00425,0.00000416,0.00001176,0.00001408,-0.00001557,-0.00002986,-0.0000
 8281,-0.00009585,0.01413744,0.01120408,0.01530091,-0.07821194,-0.12068
 244,-0.09037549,-0.00000043,-0.00000147,-0.00000159,0.00000701,-0.0000
 0659,-0.00000431,-0.00000662,-0.00000721,-0.00000043,0.00000800,-0.000
 01966,-0.00001003,-0.00000007,-0.00000146,-0.00000129,0.00000153,-0.00
 000027,-0.00000070,0.00000136,-0.00000067,-0.00000031,-0.00000121,0.00
 000078,-0.00000100,0.00000349,0.00000236,-0.00000038,-0.00000371,0.000
 00123,0.00000013,0.00000029,0.00000254,-0.00000248,0.00000010,-0.00000
 126,0.00000143,0.00000053,-0.00000107,0.00000072,0.00001276,-0.0000045
 2,0.00001378,-0.00053152,-0.00046925,0.00053060,0.00000462,0.00002629,
 -0.00007416,0.00000184,0.00000283,-0.00000006,-0.00000300,0.00000144,0
 .00000173,0.00000702,-0.00000392,0.00000186,0.00000896,-0.00005424,0.0
 0008958,-0.00049861,0.00074130,-0.00103862,0.00146186,-0.00225222,0.00
 389561,0.08583969,0.12830125,-0.00019464,0.00002906,-0.00000157,0.0001
 7958,-0.00001577,0.00000273,-0.00013995,-0.00001007,-0.00000236,0.0001
 1893,0.00013586,0.00003402,0.00018735,-0.00009594,0.00000940,0.0000154
 3,0.00004308,-0.00000226,-0.00001680,0.00000414,0.00000010,-0.00000198
 ,-0.00000889,0.00000073,-0.00009683,-0.00003663,-0.00000620,0.00000984
 ,-0.00001990,0.00000022,-0.00002364,-0.00001090,0.00000010,-0.00000417
 ,0.00002793,-0.00000130,0.00001731,0.00000130,0.00000098,0.00000727,0.
 00003890,0.00000242,0.00000174,-0.00000653,-0.00000407,0.00030729,-0.0
 0049638,0.00006090,-0.00051891,0.00116928,0.00041390,0.00048682,-0.000
 20549,-0.00001687,-0.00131791,-0.00038055,0.00005748,0.00004042,0.0000
 3842,-0.00003758,0.00003585,0.00002504,0.00000846,0.00016934,0.0000934
 4,0.00010009,0.00119393,0.00013117,0.00149062,-0.00003572,0.00005725,0
 .00000803,0.00002355,0.00004664,-0.00000930,0.00005779,-0.00002110,0.0
 0004210,0.00004468,-0.00008274,0.00009998,-0.01428462,-0.01436188,-0.0
 1818601,-0.09762898,-0.08806892,-0.16099870,-0.00000150,-0.00000148,0.
 00000034,0.00000764,0.00000125,-0.00000131,-0.00001064,-0.00000972,-0.
 00000063,0.00005274,-0.00002394,-0.00001130,0.00000209,0.00000068,-0.0
 0000003,-0.00000241,0.00000075,0.00000018,-0.00000246,0.00000047,-0.00
 000003,0.00000101,-0.00000163,0.00000064,-0.00000485,-0.00000305,0.000
 00078,0.00000413,-0.00000074,0.00000156,-0.00000029,-0.00000402,0.0000
 0299,0.00000041,0.00000189,-0.00000296,-0.00000137,0.00000215,-0.00000
 074,-0.00013081,-0.00009957,-0.00007534,0.00081354,0.00035201,-0.00067
 887,0.00011875,-0.00009603,-0.00002498,-0.00000707,-0.00000285,-0.0000
 0057,-0.00000106,0.00000791,-0.00000554,-0.00000249,0.00000108,0.00000
 178,0.00000221,0.00008855,-0.00016798,0.00020690,-0.00056129,0.0008905
 4,-0.00106550,0.00392009,-0.00272877,0.10845059,0.09454759,0.17464309,
 0.00020776,-0.00002784,0.00000252,-0.00020499,0.00002307,-0.00000311,0
 .00020068,-0.00001323,0.00000306,-0.00021749,-0.00002189,-0.00000088,-
 0.00019771,0.00009657,-0.00000958,-0.00001628,-0.00004493,0.00000256,0
 .00001463,-0.00000541,-0.00000027,-0.00000180,0.00001367,-0.00000077,0
 .00010898,0.00004043,0.00000644,-0.00001011,0.00001986,-0.00000040,0.0
 0002351,0.00001050,-0.00000016,0.00000402,-0.00002708,0.00000127,-0.00
 001579,-0.00000128,-0.00000107,-0.00000664,-0.00004137,-0.00000257,-0.
 00000164,0.00000705,0.00000429,0.00026833,-0.00001969,0.00001123,-0.00
 039370,0.00006315,-0.00000571,0.00051570,0.00010309,0.00003116,-0.0009
 3459,-0.00061862,-0.00041557,-0.00005893,0.00006268,0.00010616,0.00002
 864,0.00006937,0.00007308,0.00062405,-0.00011059,0.00005539,0.00041772
 ,0.00207423,-0.00155465,-0.00000036,0.00000945,-0.00000339,-0.00000848
 ,0.00000633,0.00001903,0.00004992,0.00000541,-0.00002879,-0.00008127,-
 0.00008036,-0.00007628,-0.00567835,0.00548272,0.00422572,-0.12535625,0
 .10945155,0.05074584,0.00000277,0.00000195,-0.00000004,-0.00000586,-0.
 00000027,-0.00000035,0.00000610,0.00000694,-0.00000315,-0.00000990,0.0
 0000119,0.00000103,-0.00000229,-0.00000047,0.00000020,0.00000246,-0.00
 000073,-0.00000006,0.00000246,-0.00000041,0.00000010,-0.00000099,0.000
 00158,-0.00000060,0.00000467,0.00000349,-0.00000072,-0.00000409,0.0000
 0097,-0.00000092,0.00000040,0.00000413,-0.00000313,-0.00000037,-0.0000
 0211,0.00000256,0.00000116,-0.00000211,0.00000073,-0.00000814,0.000004
 42,-0.00000232,0.00010237,-0.00002535,-0.00004186,0.00000737,0.0000018
 5,0.00000164,-0.00000241,0.00000190,-0.00001177,-0.00000470,0.00000234
 ,0.00000081,-0.00001969,0.00000154,0.00000236,-0.00007954,0.00017090,0
 .00008133,0.00043260,-0.00006471,-0.00010060,-0.00005553,-0.00029297,0
 .00006102,0.01194375,-0.01581057,-0.00614041,0.13150970,-0.00035676,0.
 00006307,-0.00000318,0.00036083,-0.00010567,0.00001443,-0.00044261,0.0
 0012250,-0.00000792,0.00051838,-0.00026031,0.00003307,0.00030648,-0.00
 018407,0.00001511,0.00002415,0.00006958,-0.00000462,-0.00005180,0.0000
 1988,0.00000046,0.00000883,-0.00001557,0.00000112,-0.00015542,-0.00005
 145,-0.00000993,0.00002259,-0.00003036,0.00000076,-0.00003754,-0.00001
 510,0.00000026,-0.00000500,0.00004005,-0.00000174,0.00002361,0.0000032
 1,0.00000173,0.00000906,0.00005450,0.00000425,0.00000123,-0.00000954,-
 0.00000611,-0.00063125,0.00010128,-0.00002108,0.00061325,-0.00027412,0
 .00008238,-0.00081808,0.00018509,0.00001407,0.00139898,0.00145082,0.00
 029403,0.00016773,0.00000545,-0.00017034,0.00010230,-0.00032577,-0.000
 14869,-0.00102980,-0.00053460,0.00034266,0.00177207,-0.00303096,0.0033
 1816,-0.00000016,-0.00000173,-0.00003519,0.00002478,-0.00005167,-0.000
 00124,-0.00006901,0.00009251,-0.00002222,0.00012852,0.00010238,-0.0000
 3575,0.00856610,-0.01363938,-0.00855046,0.10951135,-0.20686834,-0.0736
 2429,-0.00000038,0.00000138,-0.00000128,-0.00001010,0.00000824,-0.0000
 0439,0.00001196,0.00000972,-0.00000561,-0.00003488,0.00003030,-0.00001
 294,0.00000062,0.00000205,-0.00000052,-0.00000266,0.00000053,0.0000000
 2,-0.00000250,0.00000102,-0.00000026,0.00000194,-0.00000151,0.00000064
 ,-0.00000528,-0.00000482,0.00000094,0.00000539,-0.00000190,-0.00000054
 ,-0.00000048,-0.00000458,0.00000449,0.00000095,0.00000223,-0.00000263,
 -0.00000158,0.00000199,-0.00000104,0.00000097,0.00002163,-0.00002418,0
 .00011385,-0.00016675,-0.00008365,-0.00005940,0.00000789,0.00002959,0.
 00000939,0.00000325,-0.00000493,0.00000193,0.00000371,0.00000923,0.000
 00884,0.00000294,-0.00000315,0.00001028,0.00003986,0.00006004,-0.00056
 565,0.00021800,-0.00028724,0.00012687,0.00067119,-0.00002953,0.0086319
 0,-0.01195093,-0.00488866,-0.12138116,0.22262477,0.00010975,-0.0000129
 4,0.00000058,-0.00011183,0.00001532,-0.00000687,0.00012909,-0.00001502
 ,-0.00000149,-0.00014955,0.00002223,0.00000955,-0.00009973,0.00004340,
 -0.00000414,-0.00000947,-0.00002197,0.00000313,0.00000610,-0.00000141,
 -0.00000117,0.00000043,0.00000692,-0.00000007,0.00005791,0.00002584,0.
 00000256,-0.00000534,0.00000780,-0.00000072,0.00001127,0.00000552,-0.0
 0000035,0.00000208,-0.00001307,0.00000048,-0.00000779,-0.00000034,-0.0
 0000074,-0.00000331,-0.00002542,-0.00000042,-0.00000017,0.00000422,0.0
 0000274,0.00028865,-0.00008155,0.00003331,-0.00041845,0.00022184,-0.00
 000676,0.00055700,0.00002089,-0.00005383,-0.00141649,-0.00062367,-0.00
 044919,-0.00027072,0.00027486,0.00031555,-0.00012636,0.00027743,0.0001
 2682,0.00063442,0.00061569,-0.00021199,-0.00235864,0.00550332,-0.00326
 039,0.00000847,0.00002454,0.00003713,-0.00001913,0.00001226,-0.0000085
 3,-0.00000298,-0.00008798,0.00002241,-0.00007704,-0.00003248,0.0000470
 5,-0.01349143,0.01877507,0.01064508,0.05170599,-0.07499394,-0.08494167
 ,0.00000195,0.00000180,0.00000067,-0.00000250,0.,0.00000351,0.00000265
 ,0.00000491,0.00000234,0.00000100,-0.00000616,0.00000540,-0.00000134,-
 0.00000005,0.00000102,0.00000083,-0.00000045,0.00000031,0.00000133,-0.
 00000020,0.00000025,-0.00000020,0.00000106,-0.00000008,0.00000244,0.00
 000219,-0.00000078,-0.00000225,0.00000070,-0.00000032,0.00000051,0.000
 00247,-0.00000194,-0.00000062,-0.00000147,0.00000130,0.00000054,-0.000
 00111,0.00000058,-0.00002216,-0.00000798,-0.00002177,0.00010236,-0.000
 11596,-0.00001951,0.00002697,-0.00000579,0.00002279,-0.00001313,-0.000
 00403,-0.00000266,-0.00000068,-0.00000812,-0.00000599,-0.00000952,-0.0
 0000185,0.00000003,-0.00001755,-0.00009921,-0.00007723,0.00071160,-0.0
 0044375,0.00108767,-0.00001145,-0.00091274,0.00098140,0.01276265,-0.01
 496614,-0.00721495,-0.05543417,0.07940523,0.08881671,-0.00017122,0.000
 02330,-0.00000347,0.00016365,-0.00001158,0.00000411,-0.00013570,-0.000
 00541,-0.00000230,0.00013450,0.00008556,0.00000300,0.00016758,-0.00008
 136,0.00000831,0.00001358,0.00003818,-0.00000124,-0.00001137,0.0000039
 3,-0.00000021,0.00000052,-0.00001116,0.00000106,-0.00009154,-0.0000336
 4,-0.00000609,0.00000817,-0.00001738,-0.00000023,-0.00002033,-0.000009
 16,-0.00000019,-0.00000355,0.00002372,-0.00000135,0.00001398,0.0000010
 7,0.00000060,0.00000583,0.00003491,0.00000305,0.00000181,-0.00000595,-
 0.00000348,-0.00001175,-0.00014910,0.00002049,0.00000530,0.00032719,0.
 00006050,-0.00018744,-0.00014347,0.00003184,0.00002945,0.00019241,0.00
 016200,0.00003829,-0.00009933,-0.00004468,0.00010091,-0.00003505,0.000
 03498,0.00015048,0.00010667,0.00001391,0.00098478,-0.00108677,0.000193
 34,-0.00005687,-0.00003062,0.00000116,0.00000340,0.00004222,0.00001202
 ,-0.00001578,-0.00003336,-0.00002258,-0.00046234,-0.00002331,-0.000303
 32,0.01037533,0.00553508,-0.00689806,-0.22061126,-0.07868742,0.1052900
 4,-0.00000219,-0.00000172,0.00000069,0.00000716,-0.00000045,0.00000090
 ,-0.00000857,-0.00000835,-0.00000015,0.00002841,-0.00001646,-0.0000015
 6,0.00000207,0.00000044,0.00000066,-0.00000221,0.00000068,0.00000048,-
 0.00000221,0.00000036,0.00000021,0.00000089,-0.00000141,0.00000087,-0.
 00000445,-0.00000271,0.00000057,0.00000388,-0.00000067,0.00000120,-0.0
 0000030,-0.00000365,0.00000264,-0.00000004,0.00000182,-0.00000236,-0.0
 0000086,0.00000189,-0.00000061,-0.00003689,-0.00003551,-0.00000995,0.0
 0007637,0.00000254,-0.00011278,0.00004252,-0.00002701,-0.00000709,-0.0
 0000002,-0.00000060,-0.00001701,0.00000833,-0.00000543,0.00000998,0.00
 000951,0.00000301,-0.00000247,-0.00031032,0.00015744,-0.00037213,0.000
 01775,0.00202237,-0.00244779,0.00062478,-0.00042424,0.00075675,-0.0142
 4210,-0.00531459,0.00907789,-0.01310188,-0.00682365,0.00695800,0.23647
 195,0.00004069,-0.00000472,-0.00000011,-0.00004371,0.00000731,-0.00000
 183,0.00005530,-0.00000774,0.00000054,-0.00006910,0.00002794,0.0000097
 1,-0.00003692,0.00001816,-0.00000152,-0.00000328,-0.00000860,0.0000004
 2,0.00000281,-0.00000166,-0.00000002,-0.00000170,0.00000365,-0.0000000
 8,0.00002211,0.00000756,0.00000093,-0.00000201,0.00000350,-0.00000012,
 0.00000402,0.00000157,-0.00000008,0.00000067,-0.00000427,0.00000016,-0
 .00000216,-0.00000023,-0.00000033,-0.00000108,-0.00000735,-0.00000008,
 0.00000012,0.00000138,0.00000088,0.00024568,-0.00015822,-0.00000517,-0
 .00033170,0.00041729,0.00020057,0.00049694,-0.00003368,-0.00005398,-0.
 00077600,-0.00069150,-0.00015412,0.00010763,-0.00008618,0.00002025,0.0
 0011237,-0.00018217,-0.00000578,0.00025068,-0.00034285,0.00022121,-0.0
 0113759,0.00187881,-0.00068898,-0.00013426,0.00001501,-0.00000625,0.00
 002418,0.00015065,0.00005624,0.00024081,0.00001464,-0.00014554,-0.0000
 5136,-0.00001266,-0.00015280,-0.01533061,-0.00898986,0.01066247,-0.077
 73548,-0.08493199,0.04677153,0.00000092,0.00000048,0.00000077,-0.00000
 037,-0.00000008,-0.00000029,0.00000044,0.00000126,0.00000159,0.0000086
 6,-0.00000879,-0.00000572,-0.00000038,-0.00000008,0.00000007,0.0000004
 5,-0.00000007,0.00000005,0.00000035,-0.00000005,0.00000010,-0.00000014
 ,0.00000020,0.00000003,0.00000055,0.00000084,-0.00000018,-0.00000047,0
 .00000029,0.00000015,0.00000009,0.00000062,-0.00000054,-0.00000024,-0.
 00000043,0.00000032,0.00000019,-0.00000030,0.00000008,-0.00004155,-0.0
 0002655,-0.00001446,0.00031824,-0.00005746,-0.00005353,0.00004100,-0.0
 0003468,-0.00004321,-0.00000727,-0.00000131,0.00000301,-0.00000719,0.0
 0001352,0.00001577,-0.00002402,-0.00000131,-0.00000080,-0.00006216,0.0
 0018023,0.00025406,0.00155645,-0.00141798,0.00303901,0.00040740,0.0006
 9843,-0.00086968,-0.01351454,-0.00639897,0.00874875,0.02085082,0.01156
 809,-0.01279072,0.08452571,0.08840030,-0.00002185,0.00000381,0.0000007
 2,0.00001945,-0.00000377,0.00000294,-0.00001646,-0.00000358,0.00000345
 ,0.00001676,0.00002847,0.00000107,0.00001914,-0.00001206,0.00000051,0.
 00000204,0.00000473,-0.00000096,-0.00000356,0.00000117,0.00000051,0.00
 000011,-0.00000084,0.00000001,-0.00001009,-0.00000340,-0.00000039,0.00
 000147,-0.00000191,0.00000009,-0.00000246,-0.00000079,0.,-0.00000046,0
 .00000243,-0.00000009,0.00000149,0.00000015,0.00000013,0.00000076,0.00
 000380,-0.00000019,-0.00000039,-0.00000071,-0.00000058,0.00003391,-0.0
 0007853,0.00004810,-0.00004678,0.00006547,0.00019521,-0.00019105,-0.00
 017186,0.00002287,-0.00001102,-0.00005294,0.00012749,-0.00014315,0.000
 00750,0.00000287,-0.00016446,0.00017596,-0.00000327,0.00051951,0.00045
 206,0.00003654,-0.00034047,-0.00133948,0.00117635,0.00011459,-0.000032
 04,-0.00000832,0.00001338,-0.00008073,-0.00006853,-0.00015596,-0.00023
 834,0.00006151,-0.00012382,0.00048190,0.00030095,0.02166784,0.00940707
 ,-0.01469004,0.10331634,0.04745847,-0.11304217,-0.00000027,-0.00000027
 ,-0.00000089,0.00000090,0.00000023,-0.00000231,-0.00000208,-0.00000241
 ,-0.00000376,0.00000977,-0.00000627,-0.00001238,-0.00000003,0.00000021
 ,-0.00000010,-0.00000017,0.,0.,-0.00000013,0.00000010,-0.00000003,0.00
 000002,-0.00000010,0.,-0.00000036,-0.00000042,0.00000028,0.00000033,-0
 .00000012,0.00000002,-0.00000006,-0.00000025,0.00000039,0.00000031,0.0
 0000016,-0.00000030,-0.00000018,0.00000005,-0.00000007,-0.00002141,-0.
 00001843,-0.00001095,0.00004027,0.00003355,-0.00032098,0.00002862,-0.0
 0000344,-0.00002676,-0.00000569,-0.00000743,0.00000423,0.00001722,-0.0
 0003697,-0.00001113,-0.00001214,0.00001039,0.00001989,-0.00034346,-0.0
 0016772,-0.00050873,-0.00262041,0.00302908,-0.00297829,0.00033706,-0.0
 0060709,0.00087565,-0.01793651,-0.00764272,0.01230608,0.00840376,0.004
 36063,-0.00587683,-0.11239016,-0.05501276,0.12238019||-0.00001004,0.00
 000894,-0.00000286,0.00001044,-0.00000779,0.00000081,-0.00000981,0.000
 00571,-0.00000179,0.00000916,-0.00000535,-0.00000002,0.00001236,-0.000
 00968,0.00000245,-0.00000089,0.00000885,-0.00000044,-0.00000550,-0.000
 00975,0.00000218,-0.00000021,0.00000857,0.00000121,-0.00000491,-0.0000
 1312,-0.00000604,0.00000276,-0.00000070,0.00000180,-0.00000015,-0.0000
 0340,0.00000157,-0.00000089,0.00000052,0.,0.00000484,0.00000142,-0.000
 00269,-0.00000014,0.00000942,-0.00000076,0.00000167,-0.00000238,-0.000
 00372,-0.00001046,0.00000729,-0.00000127,0.00000650,-0.00000510,-0.000
 00560,0.00000419,0.00000605,0.00001143,-0.00002248,-0.00002079,-0.0000
 1462,0.00002123,0.00000987,-0.00000701,-0.00002239,-0.00000294,0.00000
 161,0.00002249,-0.00000135,-0.00000706,-0.00000480,0.00002786,0.000022
 23,0.00000203,-0.00000073,0.00000030,-0.00000226,0.00000215,0.00000163
 ,0.00000118,0.00000005,0.00000217,-0.00000452,-0.00000482,0.00000604,0
 .00000422,-0.00000890,-0.00001136,-0.00000030,0.00000247,0.00000371,0.
 00000085,-0.00000255,-0.00000271,-0.00000073,0.00000114,0.00000032,0.0
 0000103,-0.00000104,-0.00000275,-0.00000038,0.00000094,0.00000007,-0.0
 0000128,-0.00000005,0.00000298,-0.00000039,-0.00000014,0.00000193,0.00
 000005,-0.00000072,-0.00000020,-0.00000064,-0.00000077,-0.00000149,-0.
 00000109,-0.00000211,-0.00000505,-0.00000019,0.00000084,-0.00000281,0.
 00000027,-0.00000172,-0.00000466,0.00000042,-0.00000243,-0.00000230,0.
 00000024,-0.00000253,-0.00000334,0.00000123,-0.00000138,-0.00000276,-0
 .00000114,0.00000097,0.00000138,-0.00000115,-0.00000044,0.00000049,0.0
 0000165,0.00000203,-0.00000068,0.00000029,0.00000049,0.00000139,-0.000
 00043,0.00000085,0.00000364,-0.00000070,0.00000111,0.00000340,0.000000
 93,0.00000055,0.00000388,-0.00000134,0.00000128,0.00000620,-0.00000039
 ,0.00000118,0.00000229,-0.00000071,0.00000104,0.00000293,0.00000027,0.
 00000109,0.00000391|||@


 FOR THE NATURE OF THE CHEMICAL BOND
 IS THE PROBLEM AT THE HEART OF ALL CHEMISTRY.

                     -- BRYCE CRAWFORD, JR., 1953
 Job cpu time:  0 days  0 hours 40 minutes 27.0 seconds.
 File lengths (MBytes):  RWF=   1600 Int=      0 D2E=      0 Chk=     19 Scr=      1
 Normal termination of Gaussian 09 at Wed Oct 25 21:02:40 2023.
