 Entering Link 1 = D:\G09W\l1.exe PID=     26520.
  
 Copyright (c) 1988,1990,1992,1993,1995,1998,2003,2009, Gaussian, Inc.
                  All Rights Reserved.
  
 This is part of the Gaussian(R) 09 program.  It is based on
 the Gaussian(R) 03 system (copyright 2003, Gaussian, Inc.),
 the Gaussian(R) 98 system (copyright 1998, Gaussian, Inc.),
 the Gaussian(R) 94 system (copyright 1995, Gaussian, Inc.),
 the Gaussian 92(TM) system (copyright 1992, Gaussian, Inc.),
 the Gaussian 90(TM) system (copyright 1990, Gaussian, Inc.),
 the Gaussian 88(TM) system (copyright 1988, Gaussian, Inc.),
 the Gaussian 86(TM) system (copyright 1986, Carnegie Mellon
 University), and the Gaussian 82(TM) system (copyright 1983,
 Carnegie Mellon University). Gaussian is a federally registered
 trademark of Gaussian, Inc.
  
 This software contains proprietary and confidential information,
 including trade secrets, belonging to Gaussian, Inc.
  
 This software is provided under written license and may be
 used, copied, transmitted, or stored only in accord with that
 written license.
  
 The following legend is applicable only to US Government
 contracts under FAR:
  
                    RESTRICTED RIGHTS LEGEND
  
 Use, reproduction and disclosure by the US Government is
 subject to restrictions as set forth in subparagraphs (a)
 and (c) of the Commercial Computer Software - Restricted
 Rights clause in FAR 52.227-19.
  
 Gaussian, Inc.
 340 Quinnipiac St., Bldg. 40, Wallingford CT 06492
  
  
 ---------------------------------------------------------------
 Warning -- This program may not be used in any manner that
 competes with the business of Gaussian, Inc. or will provide
 assistance to any competitor of Gaussian, Inc.  The licensee
 of this program is prohibited from giving any competitor of
 Gaussian, Inc. access to this program.  By using this program,
 the user acknowledges that Gaussian, Inc. is engaged in the
 business of creating and licensing software in the field of
 computational chemistry and represents and warrants to the
 licensee that it is not a competitor of Gaussian, Inc. and that
 it will not use this program in any manner prohibited above.
 ---------------------------------------------------------------
  

 Cite this work as:
 Gaussian 09, Revision A.02,
 M. J. Frisch, G. W. Trucks, H. B. Schlegel, G. E. Scuseria, 
 M. A. Robb, J. R. Cheeseman, G. Scalmani, V. Barone, B. Mennucci, 
 G. A. Petersson, H. Nakatsuji, M. Caricato, X. Li, H. P. Hratchian, 
 A. F. Izmaylov, J. Bloino, G. Zheng, J. L. Sonnenberg, M. Hada, 
 M. Ehara, K. Toyota, R. Fukuda, J. Hasegawa, M. Ishida, T. Nakajima, 
 Y. Honda, O. Kitao, H. Nakai, T. Vreven, J. A. Montgomery, Jr., 
 J. E. Peralta, F. Ogliaro, M. Bearpark, J. J. Heyd, E. Brothers, 
 K. N. Kudin, V. N. Staroverov, R. Kobayashi, J. Normand, 
 K. Raghavachari, A. Rendell, J. C. Burant, S. S. Iyengar, J. Tomasi, 
 M. Cossi, N. Rega, J. M. Millam, M. Klene, J. E. Knox, J. B. Cross, 
 V. Bakken, C. Adamo, J. Jaramillo, R. Gomperts, R. E. Stratmann, 
 O. Yazyev, A. J. Austin, R. Cammi, C. Pomelli, J. W. Ochterski, 
 R. L. Martin, K. Morokuma, V. G. Zakrzewski, G. A. Voth, 
 P. Salvador, J. J. Dannenberg, S. Dapprich, A. D. Daniels, 
 O. Farkas, J. B. Foresman, J. V. Ortiz, J. Cioslowski, 
 and D. J. Fox, Gaussian, Inc., Wallingford CT, 2009.
 
 ******************************************
 Gaussian 09:  IA32W-G09RevA.02 11-Jun-2009
                26-Oct-2023 
 ******************************************
 %nproc=4
 Will use up to    4 processors via shared memory.
 %mem=1175MB
 -----------------------
 # opt freq b3lyp/6-31g*
 -----------------------
 1/14=-1,18=20,19=15,26=3,38=1/1,3;
 2/9=110,12=2,17=6,18=5,40=1/2;
 3/5=1,6=6,7=1,11=2,16=1,25=1,30=1,71=1,74=-5/1,2,3;
 4//1;
 5/5=2,38=5/2;
 6/7=2,8=2,9=2,10=2,28=1/1;
 7//1,2,3,16;
 1/14=-1,18=20,19=15/3(2);
 2/9=110/2;
 99//99;
 2/9=110/2;
 3/5=1,6=6,7=1,11=2,16=1,25=1,30=1,71=1,74=-5/1,2,3;
 4/5=5,16=3/1;
 5/5=2,38=5/2;
 7//1,2,3,16;
 1/14=-1,18=20,19=15/3(-5);
 2/9=110/2;
 6/7=2,8=2,9=2,10=2,19=2,28=1/1;
 99/9=1/99;
 ---
 B-1
 ---
 Symbolic Z-matrix:
 Charge =  0 Multiplicity = 1
 C                    0    -7.07903   3.23392   1.02212 
 C                    0    -5.95361   2.40791   0.3953 
 C                    0    -5.81797   1.11718   0.64491 
 C                    0    -4.78313   0.41082   0.20104 
 C                    0    -4.7027   -0.94173   0.28288 
 C                    0    -3.7908   -1.75491  -0.20817 
 C                    0    -3.85647  -3.09551   0.05264 
 C                    0    -2.98518  -4.197    -0.51824 
 C                    0    -5.23642   3.24714  -0.67995 
 C                    0    -2.64107  -1.16855  -0.99015 
 H                    0    -6.96163   4.14866   1.56399 
 H                    0    -7.88915   3.33243   0.20589 
 H                    0    -7.62458   2.62221   1.87568 
 H                    0    -6.53189   0.56778   1.2653 
 H                    0    -4.02162   0.94059  -0.36464 
 H                    0    -5.4929   -1.47404   0.89635 
 H                    0    -4.67349  -3.54343   0.60044 
 H                    0    -2.10047  -3.73666  -1.05605 
 H                    0    -2.54435  -4.88457   0.21592 
 H                    0    -3.59969  -4.92586  -1.12268 
 H                    0    -4.75967   2.64163  -1.417 
 H                    0    -6.0094    3.74309  -1.25927 
 H                    0    -4.66518   4.13915  -0.16906 
 H                    0    -1.67011  -1.16538  -0.3821 
 H                    0    -2.36692  -1.90071  -1.78372 
 H                    0    -2.95908  -0.22038  -1.48019 
 

 GradGradGradGradGradGradGradGradGradGradGradGradGradGradGradGradGradGrad
 Berny optimization.
 Initialization pass.
                           ----------------------------
                           !    Initial Parameters    !
                           ! (Angstroms and Degrees)  !
 --------------------------                            --------------------------
 ! Name  Definition              Value          Derivative Info.                !
 --------------------------------------------------------------------------------
 ! R1    R(1,2)                  1.5303         estimate D2E/DX2                !
 ! R2    R(1,11)                 1.0697         estimate D2E/DX2                !
 ! R3    R(1,12)                 1.1542         estimate D2E/DX2                !
 ! R4    R(1,13)                 1.1834         estimate D2E/DX2                !
 ! R5    R(2,3)                  1.3216         estimate D2E/DX2                !
 ! R6    R(2,9)                  1.541          estimate D2E/DX2                !
 ! R7    R(3,4)                  1.3292         estimate D2E/DX2                !
 ! R8    R(3,14)                 1.0938         estimate D2E/DX2                !
 ! R9    R(4,5)                  1.3574         estimate D2E/DX2                !
 ! R10   R(4,15)                 1.0865         estimate D2E/DX2                !
 ! R11   R(5,6)                  1.3168         estimate D2E/DX2                !
 ! R12   R(5,16)                 1.1332         estimate D2E/DX2                !
 ! R13   R(6,7)                  1.3673         estimate D2E/DX2                !
 ! R14   R(6,10)                 1.509          estimate D2E/DX2                !
 ! R15   R(7,8)                  1.516          estimate D2E/DX2                !
 ! R16   R(7,17)                 1.0809         estimate D2E/DX2                !
 ! R17   R(8,18)                 1.1331         estimate D2E/DX2                !
 ! R18   R(8,19)                 1.0982         estimate D2E/DX2                !
 ! R19   R(8,20)                 1.1288         estimate D2E/DX2                !
 ! R20   R(9,21)                 1.0664         estimate D2E/DX2                !
 ! R21   R(9,22)                 1.0859         estimate D2E/DX2                !
 ! R22   R(9,23)                 1.176          estimate D2E/DX2                !
 ! R23   R(10,24)                1.1456         estimate D2E/DX2                !
 ! R24   R(10,25)                1.114          estimate D2E/DX2                !
 ! R25   R(10,26)                1.1137         estimate D2E/DX2                !
 ! A1    A(2,1,11)             126.0428         estimate D2E/DX2                !
 ! A2    A(2,1,12)             105.8181         estimate D2E/DX2                !
 ! A3    A(2,1,13)             110.8224         estimate D2E/DX2                !
 ! A4    A(11,1,12)            111.2408         estimate D2E/DX2                !
 ! A5    A(11,1,13)             97.3112         estimate D2E/DX2                !
 ! A6    A(12,1,13)            103.3337         estimate D2E/DX2                !
 ! A7    A(1,2,3)              121.6867         estimate D2E/DX2                !
 ! A8    A(1,2,9)              109.5186         estimate D2E/DX2                !
 ! A9    A(3,2,9)              128.0153         estimate D2E/DX2                !
 ! A10   A(2,3,4)              122.3991         estimate D2E/DX2                !
 ! A11   A(2,3,14)             122.0512         estimate D2E/DX2                !
 ! A12   A(4,3,14)             115.5073         estimate D2E/DX2                !
 ! A13   A(3,4,5)              123.745          estimate D2E/DX2                !
 ! A14   A(3,4,15)             117.4129         estimate D2E/DX2                !
 ! A15   A(5,4,15)             118.4041         estimate D2E/DX2                !
 ! A16   A(4,5,6)              129.3372         estimate D2E/DX2                !
 ! A17   A(4,5,16)             117.3474         estimate D2E/DX2                !
 ! A18   A(6,5,16)             113.2474         estimate D2E/DX2                !
 ! A19   A(5,6,7)              120.072          estimate D2E/DX2                !
 ! A20   A(5,6,10)             118.7449         estimate D2E/DX2                !
 ! A21   A(7,6,10)             121.0918         estimate D2E/DX2                !
 ! A22   A(6,7,8)              127.8025         estimate D2E/DX2                !
 ! A23   A(6,7,17)             122.6357         estimate D2E/DX2                !
 ! A24   A(8,7,17)             108.9163         estimate D2E/DX2                !
 ! A25   A(7,8,18)             109.4079         estimate D2E/DX2                !
 ! A26   A(7,8,19)             115.7123         estimate D2E/DX2                !
 ! A27   A(7,8,20)             110.9713         estimate D2E/DX2                !
 ! A28   A(18,8,19)            104.9658         estimate D2E/DX2                !
 ! A29   A(18,8,20)            115.6728         estimate D2E/DX2                !
 ! A30   A(19,8,20)             99.9174         estimate D2E/DX2                !
 ! A31   A(2,9,21)             112.4014         estimate D2E/DX2                !
 ! A32   A(2,9,22)             106.8395         estimate D2E/DX2                !
 ! A33   A(2,9,23)             109.6342         estimate D2E/DX2                !
 ! A34   A(21,9,22)            102.0547         estimate D2E/DX2                !
 ! A35   A(21,9,23)            120.9167         estimate D2E/DX2                !
 ! A36   A(22,9,23)            103.3631         estimate D2E/DX2                !
 ! A37   A(6,10,24)            111.8245         estimate D2E/DX2                !
 ! A38   A(6,10,25)            107.5337         estimate D2E/DX2                !
 ! A39   A(6,10,26)            109.9546         estimate D2E/DX2                !
 ! A40   A(24,10,25)            99.8654         estimate D2E/DX2                !
 ! A41   A(24,10,26)           118.2415         estimate D2E/DX2                !
 ! A42   A(25,10,26)           108.4446         estimate D2E/DX2                !
 ! D1    D(11,1,2,3)           127.5338         estimate D2E/DX2                !
 ! D2    D(11,1,2,9)           -61.8185         estimate D2E/DX2                !
 ! D3    D(12,1,2,3)          -100.2559         estimate D2E/DX2                !
 ! D4    D(12,1,2,9)            70.3917         estimate D2E/DX2                !
 ! D5    D(13,1,2,3)            11.1022         estimate D2E/DX2                !
 ! D6    D(13,1,2,9)          -178.2502         estimate D2E/DX2                !
 ! D7    D(1,2,3,4)           -174.1432         estimate D2E/DX2                !
 ! D8    D(1,2,3,14)             3.3837         estimate D2E/DX2                !
 ! D9    D(9,2,3,4)             17.0672         estimate D2E/DX2                !
 ! D10   D(9,2,3,14)          -165.4059         estimate D2E/DX2                !
 ! D11   D(1,2,9,21)          -155.2036         estimate D2E/DX2                !
 ! D12   D(1,2,9,22)           -44.0559         estimate D2E/DX2                !
 ! D13   D(1,2,9,23)            67.3124         estimate D2E/DX2                !
 ! D14   D(3,2,9,21)            14.6876         estimate D2E/DX2                !
 ! D15   D(3,2,9,22)           125.8353         estimate D2E/DX2                !
 ! D16   D(3,2,9,23)          -122.7964         estimate D2E/DX2                !
 ! D17   D(2,3,4,5)           -170.7513         estimate D2E/DX2                !
 ! D18   D(2,3,4,15)             1.5177         estimate D2E/DX2                !
 ! D19   D(14,3,4,5)            11.5712         estimate D2E/DX2                !
 ! D20   D(14,3,4,15)         -176.1599         estimate D2E/DX2                !
 ! D21   D(3,4,5,6)            174.0972         estimate D2E/DX2                !
 ! D22   D(3,4,5,16)            -9.1309         estimate D2E/DX2                !
 ! D23   D(15,4,5,6)             1.8999         estimate D2E/DX2                !
 ! D24   D(15,4,5,16)          178.6717         estimate D2E/DX2                !
 ! D25   D(4,5,6,7)            176.3675         estimate D2E/DX2                !
 ! D26   D(4,5,6,10)            -0.1971         estimate D2E/DX2                !
 ! D27   D(16,5,6,7)            -0.5119         estimate D2E/DX2                !
 ! D28   D(16,5,6,10)         -177.0765         estimate D2E/DX2                !
 ! D29   D(5,6,7,8)            173.9577         estimate D2E/DX2                !
 ! D30   D(5,6,7,17)             4.2161         estimate D2E/DX2                !
 ! D31   D(10,6,7,8)            -9.5597         estimate D2E/DX2                !
 ! D32   D(10,6,7,17)         -179.3013         estimate D2E/DX2                !
 ! D33   D(5,6,10,24)          104.8427         estimate D2E/DX2                !
 ! D34   D(5,6,10,25)         -146.4894         estimate D2E/DX2                !
 ! D35   D(5,6,10,26)          -28.6038         estimate D2E/DX2                !
 ! D36   D(7,6,10,24)          -71.6856         estimate D2E/DX2                !
 ! D37   D(7,6,10,25)           36.9823         estimate D2E/DX2                !
 ! D38   D(7,6,10,26)          154.8679         estimate D2E/DX2                !
 ! D39   D(6,7,8,18)            11.5847         estimate D2E/DX2                !
 ! D40   D(6,7,8,19)           129.849          estimate D2E/DX2                !
 ! D41   D(6,7,8,20)          -117.2411         estimate D2E/DX2                !
 ! D42   D(17,7,8,18)         -177.537          estimate D2E/DX2                !
 ! D43   D(17,7,8,19)          -59.2727         estimate D2E/DX2                !
 ! D44   D(17,7,8,20)           53.6372         estimate D2E/DX2                !
 --------------------------------------------------------------------------------
 Trust Radius=3.00D-01 FncErr=1.00D-07 GrdErr=1.00D-06
 Number of steps in this run= 121 maximum allowed number of steps= 156.
 GradGradGradGradGradGradGradGradGradGradGradGradGradGradGradGradGradGrad

                          Input orientation:                          
 ---------------------------------------------------------------------
 Center     Atomic      Atomic             Coordinates (Angstroms)
 Number     Number       Type             X           Y           Z
 ---------------------------------------------------------------------
      1          6           0       -7.079030    3.233920    1.022120
      2          6           0       -5.953610    2.407910    0.395297
      3          6           0       -5.817970    1.117180    0.644909
      4          6           0       -4.783130    0.410824    0.201043
      5          6           0       -4.702700   -0.941730    0.282881
      6          6           0       -3.790800   -1.754910   -0.208172
      7          6           0       -3.856470   -3.095510    0.052635
      8          6           0       -2.985180   -4.197000   -0.518241
      9          6           0       -5.236420    3.247140   -0.679948
     10          6           0       -2.641070   -1.168550   -0.990154
     11          1           0       -6.961630    4.148660    1.563990
     12          1           0       -7.889150    3.332430    0.205888
     13          1           0       -7.624580    2.622210    1.875680
     14          1           0       -6.531890    0.567783    1.265300
     15          1           0       -4.021620    0.940585   -0.364643
     16          1           0       -5.492900   -1.474040    0.896350
     17          1           0       -4.673490   -3.543430    0.600443
     18          1           0       -2.100470   -3.736660   -1.056050
     19          1           0       -2.544350   -4.884570    0.215917
     20          1           0       -3.599690   -4.925860   -1.122680
     21          1           0       -4.759670    2.641630   -1.417000
     22          1           0       -6.009400    3.743090   -1.259270
     23          1           0       -4.665180    4.139150   -0.169055
     24          1           0       -1.670110   -1.165380   -0.382101
     25          1           0       -2.366920   -1.900710   -1.783720
     26          1           0       -2.959080   -0.220377   -1.480190
 ---------------------------------------------------------------------
                    Distance matrix (angstroms):
                    1          2          3          4          5
     1  C    0.000000
     2  C    1.530284   0.000000
     3  C    2.492619   1.321623   0.000000
     4  C    3.730308   2.322953   1.329229   0.000000
     5  C    4.861015   3.577360   2.369388   1.357413   0.000000
     6  C    6.100369   4.729798   3.617467   2.417143   1.316798
     7  C    7.168436   5.899411   4.684552   3.629752   2.325486
     8  C    8.622696   7.298696   6.133362   4.998203   3.766756
     9  C    2.508470   1.541045   2.574913   3.004381   4.331112
    10  C    6.567075   5.067885   4.241543   2.915784   2.433595
    11  H    1.069652   2.326405   3.367869   4.535957   5.714549
    12  H    1.154224   2.153353   3.064288   4.264172   5.331776
    13  H    1.183376   2.242677   2.654007   3.970954   4.876070
    14  H    2.732542   2.115982   1.093802   2.053154   2.567044
    15  H    4.065741   2.542270   2.068152   1.086529   2.103870
    16  H    4.969559   3.941173   2.623607   2.130713   1.133188
    17  H    7.203951   6.090915   4.799281   3.975886   2.621172
    18  H    8.814411   7.396542   6.346088   5.096918   4.046723
    19  H    9.333979   8.052049   6.849936   5.749222   4.495436
    20  H    9.126225   7.850438   6.675588   5.624319   4.366409
    21  H    3.417535   2.182782   2.774061   2.755923   3.966524
    22  H    2.570623   2.126831   3.249299   3.839303   5.102277
    23  H    2.839896   2.230636   3.335231   3.748506   5.101078
    24  H    7.112109   5.632151   4.844540   3.537707   3.112687
    25  H    7.512732   6.014704   5.188029   3.888514   3.262875
    26  H    5.930237   4.403698   3.805044   2.559710   2.582437
                    6          7          8          9         10
     6  C    0.000000
     7  C    1.367312   0.000000
     8  C    2.590168   1.516023   0.000000
     9  C    5.228087   6.532239   7.778782   0.000000
    10  C    1.509037   2.505550   3.084254   5.131314   0.000000
    11  H    6.931584   8.025223   9.476174   2.970580   7.311882
    12  H    6.545911   7.589757   9.014744   2.798027   7.016529
    13  H    6.180573   7.086217   8.588161   3.553179   6.886090
    14  H    3.883246   4.695545   6.201881   3.555445   4.820830
    15  H    2.709881   4.060968   5.243337   2.625900   2.597236
    16  H    2.048414   2.453349   3.962857   4.983978   3.432951
    17  H    2.152163   1.080855   2.128144   6.933119   3.507247
    18  H    2.739242   2.173429   1.133077   7.664796   2.625220
    19  H    3.395329   2.224647   1.098213   8.612463   3.908039
    20  H    3.305718   2.190316   1.128807   8.347025   3.879935
    21  H    4.661495   5.990857   7.122039   1.066386   4.380426
    22  H    6.021212   7.288529   8.528778   1.085854   5.961734
    23  H    5.958692   7.283094   8.510918   1.176014   5.739591
    24  H    2.207968   2.948655   3.307365   5.681339   1.145645
    25  H    2.128625   2.649246   2.693813   5.996057   1.113985
    26  H    2.159764   3.379534   4.091400   4.224966   1.113687
                   11         12         13         14         15
    11  H    0.000000
    12  H    1.836019   0.000000
    13  H    1.693134   1.833743   0.000000
    14  H    3.618919   3.256959   2.405661   0.000000
    15  H    4.759730   4.583036   4.563796   3.016148   0.000000
    16  H    5.849587   5.414878   4.720425   2.320488   3.095995
    17  H    8.082837   7.600894   6.953436   4.560456   4.632787
    18  H    9.626721   9.223521   8.918860   6.599574   5.103477
    19  H   10.145388   9.802351   9.214950   6.835922   6.037533
    20  H   10.043294   9.400208   9.064395   6.669360   5.930246
    21  H    4.000759   3.592299   4.364611   3.825747   2.132071
    22  H    3.006996   2.418427   3.700418   4.090113   3.550445
    23  H    2.877015   3.344452   3.903857   4.277458   3.268523
    24  H    7.747675   7.697564   7.409394   5.417997   3.156738
    25  H    8.301409   7.863798   7.841620   5.721622   3.581169
    26  H    6.661526   6.306416   6.411634   4.574263   1.929059
                   16         17         18         19         20
    16  H    0.000000
    17  H    2.245299   0.000000
    18  H    4.521050   3.066225   0.000000
    19  H    4.559457   2.545536   1.769923   0.000000
    20  H    4.424453   2.456280   1.914758   1.705078   0.000000
    21  H    4.777861   6.506341   6.919842   8.013598   7.661533
    22  H    5.668502   7.637838   8.442019   9.413781   8.998670
    23  H    5.773050   7.721025   8.330239   9.277588   9.177095
    24  H    4.042701   3.954846   2.692749   3.867078   4.291031
    25  H    4.139634   3.701760   1.992790   3.596311   3.332901
    26  H    3.693218   4.279126   3.644359   4.980309   4.762328
                   21         22         23         24         25
    21  H    0.000000
    22  H    1.673296   0.000000
    23  H    1.951630   1.775489   0.000000
    24  H    5.010960   6.609988   6.095398   0.000000
    25  H    5.147095   6.737595   6.661010   1.729390   0.000000
    26  H    3.381893   5.006229   4.861618   1.939143   1.807292
                   26
    26  H    0.000000
 Stoichiometry    C10H16
 Framework group  C1[X(C10H16)]
 Deg. of freedom    72
 Full point group                 C1      NOp   1
 Largest Abelian subgroup         C1      NOp   1
 Largest concise Abelian subgroup C1      NOp   1
                         Standard orientation:                         
 ---------------------------------------------------------------------
 Center     Atomic      Atomic             Coordinates (Angstroms)
 Number     Number       Type             X           Y           Z
 ---------------------------------------------------------------------
      1          6           0        4.113100   -0.880513   -0.033934
      2          6           0        2.805623   -0.085367   -0.038242
      3          6           0        1.628474   -0.685137   -0.074084
      4          6           0        0.489014   -0.011068   -0.192874
      5          6           0       -0.738199   -0.573863   -0.052237
      6          6           0       -1.923405   -0.000154   -0.042235
      7          6           0       -3.054025   -0.764724    0.039457
      8          6           0       -4.486574   -0.292016    0.190043
      9          6           0        3.105694    1.400459    0.239423
     10          6           0       -2.005731    1.498226   -0.201207
     11          1           0        4.936853   -0.740860   -0.701829
     12          1           0        4.464854   -0.901663    1.065181
     13          1           0        3.912716   -2.020902   -0.278345
     14          1           0        1.530887   -1.774255   -0.047564
     15          1           0        0.554434    1.069421   -0.286728
     16          1           0       -0.787513   -1.703609    0.020948
     17          1           0       -3.024191   -1.837908    0.164493
     18          1           0       -4.534298    0.826503    0.015401
     19          1           0       -5.206876   -0.720822   -0.519437
     20          1           0       -4.931610   -0.654650    1.161973
     21          1           0        2.269460    1.912505    0.658588
     22          1           0        3.821695    1.429654    1.055247
     23          1           0        3.703855    1.858270   -0.663695
     24          1           0       -2.363156    1.796465   -1.248013
     25          1           0       -2.870998    1.852907    0.404168
     26          1           0       -1.079939    1.973899    0.194951
 ---------------------------------------------------------------------
 Rotational constants (GHZ):      4.0576128      0.4577492      0.4177739
 Standard basis: 6-31G(d) (6D, 7F)
 There are   182 symmetry adapted basis functions of A   symmetry.
 Integral buffers will be    262144 words long.
 Raffenetti 2 integral format.
 Two-electron integral symmetry is turned on.
   182 basis functions,   344 primitive gaussians,   182 cartesian basis functions
    38 alpha electrons       38 beta electrons
       nuclear repulsion energy       487.3290920031 Hartrees.
 NAtoms=   26 NActive=   26 NUniq=   26 SFac= 7.50D-01 NAtFMM=   80 NAOKFM=F Big=F
 One-electron integrals computed using PRISM.
 NBasis=   182 RedAO= T  NBF=   182
 NBsUse=   182 1.00D-06 NBFU=   182
 Harris functional with IExCor=  402 diagonalized for initial guess.
 ExpMin= 1.61D-01 ExpMax= 3.05D+03 ExpMxC= 4.57D+02 IAcc=1 IRadAn=         1 AccDes= 0.00D+00
 HarFok:  IExCor=  402 AccDes= 0.00D+00 IRadAn=         1 IDoV= 1
 ScaDFX=  1.000000  1.000000  1.000000  1.000000
 FoFCou: FMM=F IPFlag=           0 FMFlag=      100000 FMFlg1=           0
         NFxFlg=           0 DoJE=T BraDBF=F KetDBF=T FulRan=T
         Omega=  0.000000  0.000000  1.000000  0.000000  0.000000 ICntrl=     500 IOpCl=  0
         NMat0=    1 NMatS0=    1 NMatT0=    0 NMatD0=    1 NMtDS0=    0 NMtDT0=    0
         I1Cent=           4 NGrid=           0.
 Petite list used in FoFCou.
 Initial guess orbital symmetries:
       Occupied  (A) (A) (A) (A) (A) (A) (A) (A) (A) (A) (A) (A)
                 (A) (A) (A) (A) (A) (A) (A) (A) (A) (A) (A) (A)
                 (A) (A) (A) (A) (A) (A) (A) (A) (A) (A) (A) (A)
                 (A) (A)
       Virtual   (A) (A) (A) (A) (A) (A) (A) (A) (A) (A) (A) (A)
                 (A) (A) (A) (A) (A) (A) (A) (A) (A) (A) (A) (A)
                 (A) (A) (A) (A) (A) (A) (A) (A) (A) (A) (A) (A)
                 (A) (A) (A) (A) (A) (A) (A) (A) (A) (A) (A) (A)
                 (A) (A) (A) (A) (A) (A) (A) (A) (A) (A) (A) (A)
                 (A) (A) (A) (A) (A) (A) (A) (A) (A) (A) (A) (A)
                 (A) (A) (A) (A) (A) (A) (A) (A) (A) (A) (A) (A)
                 (A) (A) (A) (A) (A) (A) (A) (A) (A) (A) (A) (A)
                 (A) (A) (A) (A) (A) (A) (A) (A) (A) (A) (A) (A)
                 (A) (A) (A) (A) (A) (A) (A) (A) (A) (A) (A) (A)
                 (A) (A) (A) (A) (A) (A) (A) (A) (A) (A) (A) (A)
                 (A) (A) (A) (A) (A) (A) (A) (A) (A) (A) (A) (A)
 The electronic state of the initial guess is 1-A.
 Requested convergence on RMS density matrix=1.00D-08 within 128 cycles.
 Requested convergence on MAX density matrix=1.00D-06.
 Requested convergence on             energy=1.00D-06.
 No special actions if energy rises.
 Keep R1 ints in memory in canonical form, NReq=142054087.
 Integral accuracy reduced to 1.0D-05 until final iterations.
 Initial convergence to 1.0D-05 achieved.  Increase integral accuracy.
 SCF Done:  E(RB3LYP) =  -390.595326586     A.U. after   15 cycles
             Convg  =    0.7047D-08             -V/T =  2.0093

 **********************************************************************

            Population analysis using the SCF density.

 **********************************************************************

 Orbital symmetries:
       Occupied  (A) (A) (A) (A) (A) (A) (A) (A) (A) (A) (A) (A)
                 (A) (A) (A) (A) (A) (A) (A) (A) (A) (A) (A) (A)
                 (A) (A) (A) (A) (A) (A) (A) (A) (A) (A) (A) (A)
                 (A) (A)
       Virtual   (A) (A) (A) (A) (A) (A) (A) (A) (A) (A) (A) (A)
                 (A) (A) (A) (A) (A) (A) (A) (A) (A) (A) (A) (A)
                 (A) (A) (A) (A) (A) (A) (A) (A) (A) (A) (A) (A)
                 (A) (A) (A) (A) (A) (A) (A) (A) (A) (A) (A) (A)
                 (A) (A) (A) (A) (A) (A) (A) (A) (A) (A) (A) (A)
                 (A) (A) (A) (A) (A) (A) (A) (A) (A) (A) (A) (A)
                 (A) (A) (A) (A) (A) (A) (A) (A) (A) (A) (A) (A)
                 (A) (A) (A) (A) (A) (A) (A) (A) (A) (A) (A) (A)
                 (A) (A) (A) (A) (A) (A) (A) (A) (A) (A) (A) (A)
                 (A) (A) (A) (A) (A) (A) (A) (A) (A) (A) (A) (A)
                 (A) (A) (A) (A) (A) (A) (A) (A) (A) (A) (A) (A)
                 (A) (A) (A) (A) (A) (A) (A) (A) (A) (A) (A) (A)
 The electronic state is 1-A.
 Alpha  occ. eigenvalues --  -10.19211 -10.18640 -10.18613 -10.18558 -10.18330
 Alpha  occ. eigenvalues --  -10.18167 -10.17816 -10.16841 -10.16633 -10.16455
 Alpha  occ. eigenvalues --   -0.84217  -0.81349  -0.75678  -0.72084  -0.68429
 Alpha  occ. eigenvalues --   -0.68104  -0.64433  -0.57586  -0.53281  -0.50682
 Alpha  occ. eigenvalues --   -0.47782  -0.46164  -0.43873  -0.42538  -0.41478
 Alpha  occ. eigenvalues --   -0.40736  -0.39321  -0.38288  -0.37542  -0.37263
 Alpha  occ. eigenvalues --   -0.36454  -0.34984  -0.34023  -0.33094  -0.32205
 Alpha  occ. eigenvalues --   -0.32012  -0.26516  -0.17591
 Alpha virt. eigenvalues --   -0.04167   0.06097   0.08679   0.09623   0.10294
 Alpha virt. eigenvalues --    0.11089   0.13034   0.13519   0.14023   0.14648
 Alpha virt. eigenvalues --    0.16235   0.16491   0.17724   0.17911   0.18579
 Alpha virt. eigenvalues --    0.19177   0.21390   0.21599   0.22645   0.23016
 Alpha virt. eigenvalues --    0.25077   0.28252   0.29677   0.36870   0.39692
 Alpha virt. eigenvalues --    0.42033   0.43354   0.47700   0.49791   0.51809
 Alpha virt. eigenvalues --    0.53579   0.54444   0.55302   0.56972   0.57153
 Alpha virt. eigenvalues --    0.59185   0.59722   0.60925   0.62441   0.62957
 Alpha virt. eigenvalues --    0.65250   0.65626   0.67730   0.68730   0.70036
 Alpha virt. eigenvalues --    0.72433   0.73226   0.75805   0.76214   0.77370
 Alpha virt. eigenvalues --    0.78091   0.78707   0.78994   0.81488   0.83632
 Alpha virt. eigenvalues --    0.86078   0.86638   0.86975   0.87236   0.88268
 Alpha virt. eigenvalues --    0.89425   0.89911   0.91844   0.92862   0.94894
 Alpha virt. eigenvalues --    0.96019   0.96120   0.98068   0.99549   1.01131
 Alpha virt. eigenvalues --    1.03037   1.04870   1.11818   1.12439   1.14529
 Alpha virt. eigenvalues --    1.20109   1.22856   1.27025   1.30791   1.32276
 Alpha virt. eigenvalues --    1.35879   1.37365   1.39305   1.45177   1.47909
 Alpha virt. eigenvalues --    1.50617   1.53115   1.55289   1.58170   1.61660
 Alpha virt. eigenvalues --    1.65873   1.76396   1.79518   1.82606   1.84227
 Alpha virt. eigenvalues --    1.85906   1.87839   1.88661   1.91008   1.93013
 Alpha virt. eigenvalues --    1.96860   1.98226   2.00863   2.02472   2.02622
 Alpha virt. eigenvalues --    2.05778   2.08342   2.11835   2.16292   2.16943
 Alpha virt. eigenvalues --    2.18388   2.20843   2.24312   2.26684   2.28224
 Alpha virt. eigenvalues --    2.30678   2.32954   2.34803   2.42808   2.44378
 Alpha virt. eigenvalues --    2.46774   2.48797   2.52271   2.54958   2.59066
 Alpha virt. eigenvalues --    2.62618   2.64091   2.68720   2.81542   2.91510
 Alpha virt. eigenvalues --    2.98397   3.09334   3.22457   3.27912   4.10730
 Alpha virt. eigenvalues --    4.11342   4.17737   4.20823   4.23679   4.27464
 Alpha virt. eigenvalues --    4.30117   4.36736   4.53504   4.64792
          Condensed to atoms (all electrons):
              1          2          3          4          5          6
     1  C    5.220141   0.336547  -0.017860   0.006275  -0.000414   0.000004
     2  C    0.336547   4.763949   0.637662  -0.017077   0.003965  -0.000453
     3  C   -0.017860   0.637662   4.819827   0.439728   0.002734   0.005348
     4  C    0.006275  -0.017077   0.439728   5.012947   0.500901  -0.015065
     5  C   -0.000414   0.003965   0.002734   0.500901   4.993470   0.485457
     6  C    0.000004  -0.000453   0.005348  -0.015065   0.485457   4.542624
     7  C    0.000000   0.000007  -0.000485   0.009179  -0.009403   0.587496
     8  C    0.000000   0.000000   0.000004  -0.000332   0.004160  -0.011297
     9  C   -0.091973   0.376792  -0.043058  -0.019954   0.001206   0.000014
    10  C    0.000000   0.000006   0.001389  -0.023095  -0.076273   0.361613
    11  H    0.369170  -0.020068   0.000282  -0.000118   0.000000   0.000000
    12  H    0.349691  -0.034164  -0.004754  -0.000071   0.000029   0.000000
    13  H    0.350070  -0.033912  -0.001579   0.000155   0.000011   0.000000
    14  H   -0.011670  -0.045065   0.360739  -0.071367  -0.007234   0.000750
    15  H    0.000379  -0.012675  -0.058464   0.362049  -0.054119  -0.012147
    16  H   -0.000016   0.000879  -0.006820  -0.071041   0.359809  -0.056746
    17  H    0.000000   0.000000  -0.000003   0.000291  -0.013689  -0.033596
    18  H    0.000000   0.000000   0.000000   0.000011   0.000295  -0.009166
    19  H    0.000000   0.000000   0.000000   0.000005  -0.000022   0.000448
    20  H    0.000000   0.000000   0.000000   0.000005  -0.000080  -0.002324
    21  H    0.005917  -0.025822  -0.007396   0.004463   0.000023   0.000028
    22  H   -0.005203  -0.039540  -0.000434   0.000583   0.000012   0.000000
    23  H    0.001219  -0.029208   0.000477   0.000330  -0.000022  -0.000001
    24  H    0.000000  -0.000001  -0.000007   0.001047  -0.001920  -0.022865
    25  H    0.000000   0.000000  -0.000021   0.000261   0.004480  -0.031060
    26  H    0.000000   0.000031   0.000216   0.006166  -0.010949  -0.024035
              7          8          9         10         11         12
     1  C    0.000000   0.000000  -0.091973   0.000000   0.369170   0.349691
     2  C    0.000007   0.000000   0.376792   0.000006  -0.020068  -0.034164
     3  C   -0.000485   0.000004  -0.043058   0.001389   0.000282  -0.004754
     4  C    0.009179  -0.000332  -0.019954  -0.023095  -0.000118  -0.000071
     5  C   -0.009403   0.004160   0.001206  -0.076273   0.000000   0.000029
     6  C    0.587496  -0.011297   0.000014   0.361613   0.000000   0.000000
     7  C    5.090789   0.340042   0.000000  -0.080687   0.000000   0.000000
     8  C    0.340042   5.146550   0.000000  -0.014969   0.000000   0.000000
     9  C    0.000000   0.000000   5.184319  -0.000015  -0.001428  -0.001992
    10  C   -0.080687  -0.014969  -0.000015   5.277122   0.000000   0.000000
    11  H    0.000000   0.000000  -0.001428   0.000000   0.559255  -0.033469
    12  H    0.000000   0.000000  -0.001992   0.000000  -0.033469   0.601681
    13  H    0.000000   0.000000   0.004727   0.000000  -0.043790  -0.024284
    14  H   -0.000014   0.000000   0.006409  -0.000008   0.000000   0.000669
    15  H    0.000288   0.000001   0.003422   0.002977   0.000005  -0.000014
    16  H   -0.018504   0.000348  -0.000002   0.009573   0.000000   0.000001
    17  H    0.357251  -0.068529   0.000000   0.006754   0.000000   0.000000
    18  H   -0.035278   0.365210   0.000000   0.002694   0.000000   0.000000
    19  H   -0.025004   0.361841   0.000000   0.000176   0.000000   0.000000
    20  H   -0.031823   0.365356   0.000000   0.000362   0.000000   0.000000
    21  H    0.000000   0.000000   0.359021  -0.000074   0.000012  -0.000070
    22  H    0.000000   0.000000   0.370473  -0.000001  -0.000679   0.005978
    23  H    0.000000   0.000000   0.353151   0.000003   0.002444  -0.000618
    24  H   -0.002643   0.000817   0.000001   0.361736   0.000000   0.000000
    25  H   -0.007599   0.000278   0.000000   0.354078   0.000000   0.000000
    26  H    0.004409   0.000381  -0.000075   0.350554   0.000000   0.000000
             13         14         15         16         17         18
     1  C    0.350070  -0.011670   0.000379  -0.000016   0.000000   0.000000
     2  C   -0.033912  -0.045065  -0.012675   0.000879   0.000000   0.000000
     3  C   -0.001579   0.360739  -0.058464  -0.006820  -0.000003   0.000000
     4  C    0.000155  -0.071367   0.362049  -0.071041   0.000291   0.000011
     5  C    0.000011  -0.007234  -0.054119   0.359809  -0.013689   0.000295
     6  C    0.000000   0.000750  -0.012147  -0.056746  -0.033596  -0.009166
     7  C    0.000000  -0.000014   0.000288  -0.018504   0.357251  -0.035278
     8  C    0.000000   0.000000   0.000001   0.000348  -0.068529   0.365210
     9  C    0.004727   0.006409   0.003422  -0.000002   0.000000   0.000000
    10  C    0.000000  -0.000008   0.002977   0.009573   0.006754   0.002694
    11  H   -0.043790   0.000000   0.000005   0.000000   0.000000   0.000000
    12  H   -0.024284   0.000669  -0.000014   0.000001   0.000000   0.000000
    13  H    0.618421   0.006832   0.000007  -0.000001   0.000000   0.000000
    14  H    0.006832   0.627331   0.007097   0.007198   0.000004   0.000000
    15  H    0.000007   0.007097   0.623966   0.005958   0.000004  -0.000001
    16  H   -0.000001   0.007198   0.005958   0.656424   0.010066   0.000012
    17  H    0.000000   0.000004   0.000004   0.010066   0.615876   0.005259
    18  H    0.000000   0.000000  -0.000001   0.000012   0.005259   0.573165
    19  H    0.000000   0.000000   0.000000  -0.000016  -0.001066  -0.032031
    20  H    0.000000   0.000000   0.000000  -0.000015  -0.000529  -0.017880
    21  H   -0.000199  -0.000163   0.003900   0.000000   0.000000   0.000000
    22  H    0.000180  -0.000096  -0.000230   0.000001   0.000000   0.000000
    23  H   -0.000187  -0.000133   0.000303   0.000000   0.000000   0.000000
    24  H    0.000000   0.000001   0.000328  -0.000187  -0.000122   0.000239
    25  H    0.000000   0.000000  -0.000130  -0.000218  -0.000030   0.006042
    26  H    0.000000   0.000006   0.004528  -0.000096  -0.000176  -0.000094
             19         20         21         22         23         24
     1  C    0.000000   0.000000   0.005917  -0.005203   0.001219   0.000000
     2  C    0.000000   0.000000  -0.025822  -0.039540  -0.029208  -0.000001
     3  C    0.000000   0.000000  -0.007396  -0.000434   0.000477  -0.000007
     4  C    0.000005   0.000005   0.004463   0.000583   0.000330   0.001047
     5  C   -0.000022  -0.000080   0.000023   0.000012  -0.000022  -0.001920
     6  C    0.000448  -0.002324   0.000028   0.000000  -0.000001  -0.022865
     7  C   -0.025004  -0.031823   0.000000   0.000000   0.000000  -0.002643
     8  C    0.361841   0.365356   0.000000   0.000000   0.000000   0.000817
     9  C    0.000000   0.000000   0.359021   0.370473   0.353151   0.000001
    10  C    0.000176   0.000362  -0.000074  -0.000001   0.000003   0.361736
    11  H    0.000000   0.000000   0.000012  -0.000679   0.002444   0.000000
    12  H    0.000000   0.000000  -0.000070   0.005978  -0.000618   0.000000
    13  H    0.000000   0.000000  -0.000199   0.000180  -0.000187   0.000000
    14  H    0.000000   0.000000  -0.000163  -0.000096  -0.000133   0.000001
    15  H    0.000000   0.000000   0.003900  -0.000230   0.000303   0.000328
    16  H   -0.000016  -0.000015   0.000000   0.000001   0.000000  -0.000187
    17  H   -0.001066  -0.000529   0.000000   0.000000   0.000000  -0.000122
    18  H   -0.032031  -0.017880   0.000000   0.000000   0.000000   0.000239
    19  H    0.586660  -0.048261   0.000000   0.000000   0.000000   0.000155
    20  H   -0.048261   0.582241   0.000000   0.000000   0.000000  -0.000079
    21  H    0.000000   0.000000   0.554485  -0.038194  -0.015599  -0.000003
    22  H    0.000000   0.000000  -0.038194   0.585327  -0.038777   0.000000
    23  H    0.000000   0.000000  -0.015599  -0.038777   0.582880   0.000000
    24  H    0.000155  -0.000079  -0.000003   0.000000   0.000000   0.568067
    25  H   -0.000254   0.000421   0.000000   0.000000   0.000000  -0.041701
    26  H   -0.000017   0.000019   0.000457   0.000005  -0.000011  -0.020435
             25         26
     1  C    0.000000   0.000000
     2  C    0.000000   0.000031
     3  C   -0.000021   0.000216
     4  C    0.000261   0.006166
     5  C    0.004480  -0.010949
     6  C   -0.031060  -0.024035
     7  C   -0.007599   0.004409
     8  C    0.000278   0.000381
     9  C    0.000000  -0.000075
    10  C    0.354078   0.350554
    11  H    0.000000   0.000000
    12  H    0.000000   0.000000
    13  H    0.000000   0.000000
    14  H    0.000000   0.000006
    15  H   -0.000130   0.004528
    16  H   -0.000218  -0.000096
    17  H   -0.000030  -0.000176
    18  H    0.006042  -0.000094
    19  H   -0.000254  -0.000017
    20  H    0.000421   0.000019
    21  H    0.000000   0.000457
    22  H    0.000000   0.000005
    23  H    0.000000  -0.000011
    24  H   -0.041701  -0.020435
    25  H    0.586825  -0.024361
    26  H   -0.024361   0.561096
 Mulliken atomic charges:
              1
     1  C   -0.512276
     2  C    0.138147
     3  C   -0.127525
     4  C   -0.126277
     5  C   -0.182427
     6  C    0.234972
     7  C   -0.178021
     8  C   -0.489860
     9  C   -0.501037
    10  C   -0.533917
    11  H    0.168384
    12  H    0.141388
    13  H    0.123549
    14  H    0.118714
    15  H    0.122566
    16  H    0.103390
    17  H    0.122235
    18  H    0.141520
    19  H    0.157384
    20  H    0.152587
    21  H    0.159214
    22  H    0.160595
    23  H    0.143751
    24  H    0.157572
    25  H    0.152989
    26  H    0.152382
 Sum of Mulliken atomic charges =   0.00000
 Mulliken charges with hydrogens summed into heavy atoms:
              1
     1  C   -0.078956
     2  C    0.138147
     3  C   -0.008811
     4  C   -0.003711
     5  C   -0.079037
     6  C    0.234972
     7  C   -0.055786
     8  C   -0.038368
     9  C   -0.037477
    10  C   -0.070974
 Sum of Mulliken charges with hydrogens summed into heavy atoms =   0.00000
 Electronic spatial extent (au):  <R**2>=           2733.3808
 Charge=              0.0000 electrons
 Dipole moment (field-independent basis, Debye):
    X=              0.0242    Y=              0.2911    Z=              0.2602  Tot=              0.3912
 Quadrupole moment (field-independent basis, Debye-Ang):
   XX=            -56.7365   YY=            -61.2977   ZZ=            -65.6125
   XY=              1.1377   XZ=              0.0600   YZ=             -0.1804
 Traceless Quadrupole moment (field-independent basis, Debye-Ang):
   XX=              4.4791   YY=             -0.0821   ZZ=             -4.3970
   XY=              1.1377   XZ=              0.0600   YZ=             -0.1804
 Octapole moment (field-independent basis, Debye-Ang**2):
  XXX=             -2.8275  YYY=             -4.4846  ZZZ=              1.0613  XYY=             -2.8874
  XXY=             -2.2536  XXZ=             -2.0175  XZZ=              2.1642  YZZ=              2.1888
  YYZ=              0.5751  XYZ=              3.5300
 Hexadecapole moment (field-independent basis, Debye-Ang**3):
 XXXX=          -3114.7483 YYYY=           -442.6311 ZZZZ=           -104.8884 XXXY=             31.3189
 XXXZ=            -19.4845 YYYX=              4.0145 YYYZ=              1.7979 ZZZX=              3.4674
 ZZZY=             -1.7380 XXYY=           -605.1413 XXZZ=           -557.4274 YYZZ=            -90.8435
 XXYZ=             -5.8024 YYXZ=             -2.2749 ZZXY=              2.0169
 N-N= 4.873290920031D+02 E-N=-1.877453366682D+03  KE= 3.869805995122D+02
 Calling FoFJK, ICntrl=      2127 FMM=F ISym2X=0 I1Cent= 0 IOpClX= 0 NMat=1 NMatS=1 NMatT=0.
 ***** Axes restored to original set *****
 -------------------------------------------------------------------
 Center     Atomic                   Forces (Hartrees/Bohr)
 Number     Number              X              Y              Z
 -------------------------------------------------------------------
      1        6          -0.060596823   -0.062948025    0.008146112
      2        6          -0.021785684    0.076783061   -0.002520074
      3        6          -0.056196043    0.020854629    0.041493207
      4        6           0.068064180   -0.056708538   -0.047902665
      5        6          -0.096352583    0.047957256    0.066209591
      6        6           0.085725951   -0.077980739   -0.031694223
      7        6           0.009155499   -0.021908576   -0.014280576
      8        6           0.012895243    0.007629488   -0.009818116
      9        6          -0.006850975    0.021222893    0.041086700
     10        6           0.023494753   -0.022379074   -0.012059090
     11        1           0.019332832    0.021802521   -0.006968299
     12        1           0.018558512    0.008214778    0.023014344
     13        1           0.018434300    0.012266895   -0.032127310
     14        1          -0.001858674    0.008499121    0.003091399
     15        1           0.001680313   -0.000481034    0.002254779
     16        1           0.010326609    0.015983849   -0.012495617
     17        1          -0.009674648    0.010045375    0.007817231
     18        1          -0.020495577   -0.018494896    0.001017438
     19        1          -0.000466364    0.006640405    0.009928720
     20        1           0.011063403    0.018049474   -0.002148834
     21        1           0.026433702   -0.004654603   -0.005422598
     22        1          -0.009321628    0.006323428   -0.001211935
     23        1          -0.007304518   -0.035821432   -0.023847487
     24        1          -0.025901859    0.016458213   -0.010999445
     25        1          -0.005176022    0.012772481    0.000483928
     26        1           0.016816103   -0.010126949    0.008952819
 -------------------------------------------------------------------
 Cartesian Forces:  Max     0.096352583 RMS     0.030904962

 GradGradGradGradGradGradGradGradGradGradGradGradGradGradGradGradGradGrad
 Berny optimization.
 Internal  Forces:  Max     0.136135427 RMS     0.020862133
 Search for a local minimum.
 Step number   1 out of a maximum of  121
 All quantities printed in internal units (Hartrees-Bohrs-Radians)
 Mixed Optimization -- RFO/linear search
 Second derivative matrix not updated -- first step.
     Eigenvalues ---    0.00230   0.00365   0.00554   0.00646   0.01207
     Eigenvalues ---    0.01493   0.01912   0.02521   0.02652   0.02869
     Eigenvalues ---    0.02916   0.03025   0.03081   0.03126   0.03189
     Eigenvalues ---    0.04964   0.06220   0.06694   0.06822   0.06935
     Eigenvalues ---    0.07355   0.07871   0.07927   0.15878   0.15932
     Eigenvalues ---    0.15991   0.15993   0.16000   0.16000   0.16000
     Eigenvalues ---    0.16000   0.16000   0.16000   0.16000   0.16000
     Eigenvalues ---    0.16000   0.16000   0.16000   0.16000   0.22002
     Eigenvalues ---    0.22004   0.22023   0.22033   0.24475   0.24803
     Eigenvalues ---    0.24963   0.24973   0.25920   0.26502   0.28333
     Eigenvalues ---    0.28427   0.29100   0.29397   0.30263   0.30274
     Eigenvalues ---    0.30687   0.30753   0.31447   0.32182   0.32213
     Eigenvalues ---    0.33881   0.34377   0.35217   0.35296   0.35891
     Eigenvalues ---    0.37274   0.37691   0.51497   0.53474   0.59688
     Eigenvalues ---    0.61529   0.627361000.000001000.000001000.00000
     Eigenvalues --- 1000.000001000.000001000.000001000.000001000.00000
     Eigenvalues --- 1000.000001000.000001000.000001000.000001000.00000
     Eigenvalues --- 1000.000001000.000001000.000001000.000001000.00000
     Eigenvalues --- 1000.000001000.000001000.000001000.000001000.00000
     Eigenvalues --- 1000.000001000.000001000.000001000.000001000.00000
     Eigenvalues --- 1000.000001000.000001000.000001000.000001000.00000
     Eigenvalues --- 1000.000001000.000001000.000001000.000001000.00000
     Eigenvalues --- 1000.00000
 RFO step:  Lambda=-9.50788862D-02 EMin= 2.30000000D-03
 Linear search not attempted -- first point.
 Maximum step size (   0.300) exceeded in Quadratic search.
    -- Step size scaled by   0.607
 Iteration  1 RMS(Cart)=  0.08456337 RMS(Int)=  0.00116230
 Iteration  2 RMS(Cart)=  0.00158583 RMS(Int)=  0.00012468
 Iteration  3 RMS(Cart)=  0.00000116 RMS(Int)=  0.00012467
 Iteration  4 RMS(Cart)=  0.00000000 RMS(Int)=  0.00012467
 Variable       Old X    -DE/DX   Delta X   Delta X   Delta X     New X
                                 (Linear)    (Quad)   (Total)
    R1        2.89182  -0.01126   0.00000  -0.01758  -0.01758   2.87424
    R2        2.02135   0.01724   0.00000   0.02238   0.02238   2.04373
    R3        2.18117  -0.02860   0.00000  -0.04591  -0.04591   2.13526
    R4        2.23626  -0.03801   0.00000  -0.06517  -0.06517   2.17109
    R5        2.49751   0.04452   0.00000   0.03806   0.03806   2.53557
    R6        2.91215  -0.01307   0.00000  -0.02092  -0.02092   2.89123
    R7        2.51188   0.11667   0.00000   0.10241   0.10241   2.61428
    R8        2.06699  -0.00130   0.00000  -0.00180  -0.00180   2.06518
    R9        2.56514   0.01603   0.00000   0.01546   0.01546   2.58059
   R10        2.05324  -0.00023   0.00000  -0.00031  -0.00031   2.05293
   R11        2.48839   0.13614   0.00000   0.11445   0.11445   2.60284
   R12        2.14141  -0.02147   0.00000  -0.03279  -0.03279   2.10862
   R13        2.58384  -0.00347   0.00000  -0.00345  -0.00345   2.58039
   R14        2.85167   0.01282   0.00000   0.01901   0.01901   2.87068
   R15        2.86487  -0.00794   0.00000  -0.01197  -0.01197   2.85289
   R16        2.04252   0.00711   0.00000   0.00951   0.00951   2.05203
   R17        2.14120  -0.02400   0.00000  -0.03664  -0.03664   2.10456
   R18        2.07532   0.00229   0.00000   0.00321   0.00321   2.07853
   R19        2.13314  -0.01653   0.00000  -0.02497  -0.02497   2.10816
   R20        2.01518   0.01821   0.00000   0.02343   0.02343   2.03861
   R21        2.05197   0.01017   0.00000   0.01379   0.01379   2.06576
   R22        2.22234  -0.04108   0.00000  -0.06929  -0.06929   2.15306
   R23        2.16495  -0.02775   0.00000  -0.04365  -0.04365   2.12130
   R24        2.10513  -0.01001   0.00000  -0.01459  -0.01459   2.09054
   R25        2.10456  -0.01736   0.00000  -0.02527  -0.02527   2.07929
    A1        2.19986  -0.02912   0.00000  -0.07242  -0.07261   2.12725
    A2        1.84687   0.01692   0.00000   0.03740   0.03691   1.88378
    A3        1.93422  -0.00208   0.00000   0.00108   0.00111   1.93532
    A4        1.94152  -0.00179   0.00000  -0.01263  -0.01313   1.92839
    A5        1.69840   0.01984   0.00000   0.05156   0.05179   1.75019
    A6        1.80351   0.00029   0.00000   0.00859   0.00830   1.81181
    A7        2.12383  -0.00402   0.00000  -0.00666  -0.00667   2.11717
    A8        1.91146   0.01589   0.00000   0.02843   0.02843   1.93989
    A9        2.23429  -0.01162   0.00000  -0.02029  -0.02032   2.21397
   A10        2.13627   0.02102   0.00000   0.04053   0.04053   2.17680
   A11        2.13020  -0.01936   0.00000  -0.04130  -0.04131   2.08889
   A12        2.01598  -0.00161   0.00000   0.00097   0.00096   2.01695
   A13        2.15976   0.00350   0.00000   0.00713   0.00704   2.16680
   A14        2.04924  -0.00058   0.00000  -0.00005  -0.00013   2.04911
   A15        2.06654  -0.00234   0.00000  -0.00427  -0.00436   2.06218
   A16        2.25736   0.00721   0.00000   0.01392   0.01391   2.27127
   A17        2.04810  -0.01112   0.00000  -0.02482  -0.02482   2.02328
   A18        1.97654   0.00395   0.00000   0.01106   0.01106   1.98760
   A19        2.09565  -0.00683   0.00000  -0.01197  -0.01197   2.08368
   A20        2.07249   0.01167   0.00000   0.02060   0.02060   2.09309
   A21        2.11345  -0.00479   0.00000  -0.00839  -0.00840   2.10506
   A22        2.23057   0.00219   0.00000   0.00452   0.00450   2.23507
   A23        2.14040  -0.01534   0.00000  -0.03577  -0.03583   2.10457
   A24        1.90095   0.01353   0.00000   0.03321   0.03321   1.93415
   A25        1.90953   0.01449   0.00000   0.03278   0.03299   1.94252
   A26        2.01956  -0.01575   0.00000  -0.03438  -0.03422   1.98534
   A27        1.93682  -0.00149   0.00000  -0.00495  -0.00490   1.93192
   A28        1.83200   0.00234   0.00000   0.00842   0.00870   1.84070
   A29        2.01887  -0.01330   0.00000  -0.03730  -0.03721   1.98166
   A30        1.74389   0.01167   0.00000   0.03122   0.03123   1.77512
   A31        1.96178   0.00540   0.00000   0.01030   0.01017   1.97194
   A32        1.86470  -0.00205   0.00000   0.00200   0.00188   1.86658
   A33        1.91348   0.00634   0.00000   0.01039   0.01030   1.92378
   A34        1.78119   0.00737   0.00000   0.02744   0.02727   1.80846
   A35        2.11039  -0.01792   0.00000  -0.05253  -0.05261   2.05778
   A36        1.80403   0.00208   0.00000   0.01007   0.01000   1.81402
   A37        1.95171  -0.00071   0.00000  -0.00319  -0.00331   1.94839
   A38        1.87682   0.00790   0.00000   0.02447   0.02422   1.90104
   A39        1.91907   0.00973   0.00000   0.01854   0.01836   1.93743
   A40        1.74298   0.00658   0.00000   0.02587   0.02566   1.76864
   A41        2.06370  -0.01516   0.00000  -0.04489  -0.04494   2.01877
   A42        1.89272  -0.00710   0.00000  -0.01467  -0.01496   1.87775
    D1        2.22589   0.00498   0.00000   0.01813   0.01782   2.24370
    D2       -1.07894   0.00546   0.00000   0.02516   0.02497  -1.05397
    D3       -1.74980  -0.00730   0.00000  -0.03144  -0.03146  -1.78125
    D4        1.22857  -0.00681   0.00000  -0.02441  -0.02431   1.20426
    D5        0.19377   0.00089   0.00000  -0.00156  -0.00141   0.19236
    D6       -3.11105   0.00137   0.00000   0.00547   0.00574  -3.10531
    D7       -3.03937  -0.00411   0.00000  -0.02097  -0.02099  -3.06036
    D8        0.05906  -0.00271   0.00000  -0.01499  -0.01510   0.04395
    D9        0.29788  -0.00760   0.00000  -0.03457  -0.03447   0.26341
   D10       -2.88688  -0.00621   0.00000  -0.02860  -0.02858  -2.91546
   D11       -2.70881  -0.00944   0.00000  -0.03863  -0.03866  -2.74747
   D12       -0.76892   0.00076   0.00000   0.00000   0.00005  -0.76887
   D13        1.17482   0.00508   0.00000   0.01750   0.01752   1.19234
   D14        0.25635  -0.00774   0.00000  -0.02892  -0.02898   0.22737
   D15        2.19624   0.00245   0.00000   0.00970   0.00973   2.20597
   D16       -2.14320   0.00678   0.00000   0.02721   0.02720  -2.11600
   D17       -2.98017  -0.00329   0.00000  -0.01592  -0.01589  -2.99606
   D18        0.02649   0.00165   0.00000   0.00838   0.00844   0.03493
   D19        0.20196  -0.00414   0.00000  -0.02046  -0.02053   0.18143
   D20       -3.07457   0.00080   0.00000   0.00384   0.00381  -3.07076
   D21        3.03857   0.00333   0.00000   0.01660   0.01661   3.05518
   D22       -0.15936   0.00426   0.00000   0.02057   0.02054  -0.13882
   D23        0.03316  -0.00179   0.00000  -0.00824  -0.00821   0.02495
   D24        3.11841  -0.00086   0.00000  -0.00427  -0.00427   3.11414
   D25        3.07819  -0.00015   0.00000  -0.00006  -0.00003   3.07816
   D26       -0.00344  -0.00085   0.00000  -0.00423  -0.00422  -0.00766
   D27       -0.00893  -0.00065   0.00000  -0.00294  -0.00295  -0.01189
   D28       -3.09057  -0.00135   0.00000  -0.00711  -0.00714  -3.09771
   D29        3.03613   0.00233   0.00000   0.01094   0.01081   3.04694
   D30        0.07358  -0.00187   0.00000  -0.00745  -0.00726   0.06632
   D31       -0.16685   0.00361   0.00000   0.01622   0.01604  -0.15081
   D32       -3.12940  -0.00059   0.00000  -0.00217  -0.00203  -3.13143
   D33        1.82985  -0.00838   0.00000  -0.03115  -0.03121   1.79864
   D34       -2.55672   0.00320   0.00000   0.01071   0.01069  -2.54603
   D35       -0.49923   0.00462   0.00000   0.01748   0.01759  -0.48164
   D36       -1.25115  -0.00902   0.00000  -0.03525  -0.03534  -1.28649
   D37        0.64546   0.00256   0.00000   0.00661   0.00656   0.65203
   D38        2.70295   0.00398   0.00000   0.01337   0.01346   2.71642
   D39        0.20219  -0.00437   0.00000  -0.01930  -0.01933   0.18286
   D40        2.26629  -0.00106   0.00000  -0.00695  -0.00717   2.25912
   D41       -2.04624   0.00299   0.00000   0.00804   0.00795  -2.03830
   D42       -3.09861  -0.00296   0.00000  -0.00849  -0.00829  -3.10690
   D43       -1.03450   0.00034   0.00000   0.00386   0.00387  -1.03063
   D44        0.93615   0.00440   0.00000   0.01885   0.01899   0.95514
         Item               Value     Threshold  Converged?
 Maximum Force            0.136135     0.000450     NO 
 RMS     Force            0.020862     0.000300     NO 
 Maximum Displacement     0.253717     0.001800     NO 
 RMS     Displacement     0.084396     0.001200     NO 
 Predicted change in Energy=-4.448757D-02
 GradGradGradGradGradGradGradGradGradGradGradGradGradGradGradGradGradGrad

                          Input orientation:                          
 ---------------------------------------------------------------------
 Center     Atomic      Atomic             Coordinates (Angstroms)
 Number     Number       Type             X           Y           Z
 ---------------------------------------------------------------------
      1          6           0       -7.156745    3.247056    1.049530
      2          6           0       -6.009764    2.481596    0.407748
      3          6           0       -5.835935    1.169935    0.630603
      4          6           0       -4.769296    0.425254    0.159879
      5          6           0       -4.683626   -0.934512    0.252289
      6          6           0       -3.736379   -1.800441   -0.247727
      7          6           0       -3.826777   -3.131936    0.041224
      8          6           0       -2.973071   -4.259139   -0.487692
      9          6           0       -5.289609    3.338454   -0.635323
     10          6           0       -2.565205   -1.260962   -1.050830
     11          1           0       -6.994860    4.165441    1.597246
     12          1           0       -7.960559    3.388988    0.268195
     13          1           0       -7.669892    2.613391    1.858913
     14          1           0       -6.552470    0.626909    1.251907
     15          1           0       -4.003400    0.949963   -0.404275
     16          1           0       -5.473715   -1.432737    0.862712
     17          1           0       -4.668982   -3.518503    0.607275
     18          1           0       -2.087042   -3.870921   -1.039543
     19          1           0       -2.566102   -4.912804    0.297740
     20          1           0       -3.589149   -4.975102   -1.081317
     21          1           0       -4.753770    2.751875   -1.365104
     22          1           0       -6.062151    3.839284   -1.224670
     23          1           0       -4.734497    4.193842   -0.127115
     24          1           0       -1.622661   -1.234969   -0.441695
     25          1           0       -2.298107   -1.995776   -1.833476
     26          1           0       -2.832746   -0.320402   -1.555267
 ---------------------------------------------------------------------
                    Distance matrix (angstroms):
                    1          2          3          4          5
     1  C    0.000000
     2  C    1.520980   0.000000
     3  C    2.496893   1.341766   0.000000
     4  C    3.801837   2.414279   1.383420   0.000000
     5  C    4.923152   3.667779   2.428916   1.365592   0.000000
     6  C    6.233699   4.892215   3.742022   2.487323   1.377362
     7  C    7.266149   6.034196   4.784368   3.681850   2.367998
     8  C    8.729785   7.447203   6.238703   5.058588   3.811393
     9  C    2.516601   1.529975   2.569731   3.064279   4.406053
    10  C    6.768750   5.291425   4.408418   3.027731   2.508465
    11  H    1.081494   2.284875   3.354186   4.583467   5.758492
    12  H    1.129932   2.156023   3.093471   4.356560   5.425052
    13  H    1.148892   2.208908   2.637368   4.011000   4.907814
    14  H    2.696530   2.108791   1.092849   2.100690   2.632461
    15  H    4.163385   2.651561   2.116021   1.086363   2.108323
    16  H    4.976742   3.976977   2.637988   2.107679   1.115834
    17  H    7.222004   6.151316   4.831539   3.970320   2.608302
    18  H    8.985083   7.605056   6.500293   5.204826   4.127176
    19  H    9.392684   8.157700   6.913922   5.776498   4.506971
    20  H    9.212608   7.979915   6.763150   5.665436   4.393491
    21  H    3.442376   2.189423   2.767031   2.781902   4.026205
    22  H    2.592461   2.123875   3.258624   3.904363   5.183711
    23  H    2.854502   2.200947   3.306254   3.779661   5.142621
    24  H    7.275877   5.812149   4.968406   3.608260   3.152997
    25  H    7.707488   6.232683   5.348798   3.992696   3.341766
    26  H    6.181319   4.668840   4.002284   2.692203   2.658975
                    6          7          8          9         10
     6  C    0.000000
     7  C    1.365484   0.000000
     8  C    2.585618   1.509686   0.000000
     9  C    5.382471   6.668099   7.944279   0.000000
    10  C    1.519099   2.506929   3.077751   5.361870   0.000000
    11  H    7.043676   8.106151   9.565318   2.928507   7.488658
    12  H    6.711187   7.724126   9.161891   2.820084   7.243736
    13  H    6.276334   7.147189   8.648604   3.523163   7.038114
    14  H    4.008902   4.798341   6.301728   3.536797   4.976438
    15  H    2.767766   4.109935   5.310676   2.722610   2.715626
    16  H    2.094424   2.504900   4.008162   5.004225   3.485768
    17  H    2.133662   1.085890   2.150258   6.996219   3.503096
    18  H    2.763001   2.177346   1.113688   7.899045   2.653423
    19  H    3.369553   2.196951   1.099912   8.739071   3.892891
    20  H    3.285579   2.171135   1.115592   8.497393   3.852822
    21  H    4.796582   6.120156   7.286636   1.078785   4.581642
    22  H    6.178197   7.429488   8.698851   1.093151   6.186385
    23  H    6.078011   7.383720   8.642079   1.139348   5.942555
    24  H    2.196631   2.947851   3.312300   5.865168   1.122546
    25  H    2.149741   2.672488   2.718368   6.232067   1.106267
    26  H    2.171803   3.382544   4.083265   4.502189   1.100312
                   11         12         13         14         15
    11  H    0.000000
    12  H    1.817094   0.000000
    13  H    1.712600   1.793438   0.000000
    14  H    3.582761   3.252611   2.358643   0.000000
    15  H    4.826409   4.696825   4.618677   3.056969   0.000000
    16  H    5.847480   5.457735   4.710283   2.357399   3.073164
    17  H    8.089051   7.659169   6.940618   4.598643   4.629624
    18  H    9.778674   9.429457   9.034133   6.739530   5.226559
    19  H   10.184162   9.900545   9.226567   6.891298   6.077062
    20  H   10.115489   9.533541   9.103991   6.753350   5.977992
    21  H    3.974440   3.654733   4.349394   3.820935   2.175577
    22  H    2.989905   2.456698   3.687293   4.085730   3.641384
    23  H    2.843144   3.348363   3.880551   4.234352   3.336776
    24  H    7.885571   7.877428   7.528059   5.535151   3.231601
    25  H    8.472894   8.091728   7.983372   5.873472   3.691614
    26  H    6.883628   6.586278   6.607704   4.755415   2.075823
                   16         17         18         19         20
    16  H    0.000000
    17  H    2.250169   0.000000
    18  H    4.586160   3.082632   0.000000
    19  H    4.569931   2.542045   1.761631   0.000000
    20  H    4.458608   2.477714   1.864749   1.718227   0.000000
    21  H    4.795046   6.573820   7.146948   8.142374   7.819403
    22  H    5.700668   7.709342   8.676579   9.546682   9.155855
    23  H    5.760607   7.747508   8.537093   9.370883   9.289342
    24  H    4.070774   3.949042   2.742502   3.868245   4.273733
    25  H    4.203680   3.727870   2.047205   3.622563   3.333005
    26  H    3.749484   4.275067   3.664455   4.959323   4.739515
                   21         22         23         24         25
    21  H    0.000000
    22  H    1.707056   0.000000
    23  H    1.900594   1.758693   0.000000
    24  H    5.152810   6.787500   6.265339   0.000000
    25  H    5.365617   6.970408   6.867243   1.723980   0.000000
    26  H    3.628414   5.276489   5.102419   1.881695   1.780481
                   26
    26  H    0.000000
 Stoichiometry    C10H16
 Framework group  C1[X(C10H16)]
 Deg. of freedom    72
 Full point group                 C1      NOp   1
 Largest Abelian subgroup         C1      NOp   1
 Largest concise Abelian subgroup C1      NOp   1
                         Standard orientation:                         
 ---------------------------------------------------------------------
 Center     Atomic      Atomic             Coordinates (Angstroms)
 Number     Number       Type             X           Y           Z
 ---------------------------------------------------------------------
      1          6           0        4.168064   -0.921808   -0.029105
      2          6           0        2.897722   -0.085433   -0.038505
      3          6           0        1.685386   -0.659368   -0.072809
      4          6           0        0.490088    0.029481   -0.175763
      5          6           0       -0.740814   -0.547594   -0.046520
      6          6           0       -1.993234    0.025497   -0.034797
      7          6           0       -3.096350   -0.776302    0.034471
      8          6           0       -4.541401   -0.361365    0.171611
      9          6           0        3.207055    1.391053    0.216694
     10          6           0       -2.138877    1.531374   -0.171854
     11          1           0        4.973754   -0.744727   -0.728488
     12          1           0        4.561513   -0.944986    1.029859
     13          1           0        3.935127   -2.023042   -0.259271
     14          1           0        1.601594   -1.748816   -0.052828
     15          1           0        0.542322    1.110806   -0.266286
     16          1           0       -0.753178   -1.661592    0.016250
     17          1           0       -2.991771   -1.851792    0.141897
     18          1           0       -4.662526    0.736270    0.027295
     19          1           0       -5.208769   -0.829651   -0.566721
     20          1           0       -4.969154   -0.734374    1.132047
     21          1           0        2.359362    1.939459    0.596753
     22          1           0        3.927106    1.428371    1.038347
     23          1           0        3.775382    1.832777   -0.666481
     24          1           0       -2.466759    1.823129   -1.205043
     25          1           0       -3.003229    1.864691    0.432815
     26          1           0       -1.246606    2.050265    0.209316
 ---------------------------------------------------------------------
 Rotational constants (GHZ):      4.0031623      0.4392648      0.4013334
 Standard basis: 6-31G(d) (6D, 7F)
 There are   182 symmetry adapted basis functions of A   symmetry.
 Integral buffers will be    262144 words long.
 Raffenetti 2 integral format.
 Two-electron integral symmetry is turned on.
   182 basis functions,   344 primitive gaussians,   182 cartesian basis functions
    38 alpha electrons       38 beta electrons
       nuclear repulsion energy       481.3967387448 Hartrees.
 NAtoms=   26 NActive=   26 NUniq=   26 SFac= 7.50D-01 NAtFMM=   80 NAOKFM=F Big=F
 One-electron integrals computed using PRISM.
 NBasis=   182 RedAO= T  NBF=   182
 NBsUse=   182 1.00D-06 NBFU=   182
 Initial guess read from the read-write file.
 B after Tr=     0.000000    0.000000    0.000000
         Rot=    1.000000    0.000000    0.000000    0.000000 Ang=   0.00 deg.
 Initial guess orbital symmetries:
       Occupied  (A) (A) (A) (A) (A) (A) (A) (A) (A) (A) (A) (A)
                 (A) (A) (A) (A) (A) (A) (A) (A) (A) (A) (A) (A)
                 (A) (A) (A) (A) (A) (A) (A) (A) (A) (A) (A) (A)
                 (A) (A)
       Virtual   (A) (A) (A) (A) (A) (A) (A) (A) (A) (A) (A) (A)
                 (A) (A) (A) (A) (A) (A) (A) (A) (A) (A) (A) (A)
                 (A) (A) (A) (A) (A) (A) (A) (A) (A) (A) (A) (A)
                 (A) (A) (A) (A) (A) (A) (A) (A) (A) (A) (A) (A)
                 (A) (A) (A) (A) (A) (A) (A) (A) (A) (A) (A) (A)
                 (A) (A) (A) (A) (A) (A) (A) (A) (A) (A) (A) (A)
                 (A) (A) (A) (A) (A) (A) (A) (A) (A) (A) (A) (A)
                 (A) (A) (A) (A) (A) (A) (A) (A) (A) (A) (A) (A)
                 (A) (A) (A) (A) (A) (A) (A) (A) (A) (A) (A) (A)
                 (A) (A) (A) (A) (A) (A) (A) (A) (A) (A) (A) (A)
                 (A) (A) (A) (A) (A) (A) (A) (A) (A) (A) (A) (A)
                 (A) (A) (A) (A) (A) (A) (A) (A) (A) (A) (A) (A)
 Harris functional with IExCor=  402 diagonalized for initial guess.
 ExpMin= 1.61D-01 ExpMax= 3.05D+03 ExpMxC= 4.57D+02 IAcc=1 IRadAn=         1 AccDes= 0.00D+00
 HarFok:  IExCor=  402 AccDes= 0.00D+00 IRadAn=         1 IDoV= 1
 ScaDFX=  1.000000  1.000000  1.000000  1.000000
 FoFCou: FMM=F IPFlag=           0 FMFlag=      100000 FMFlg1=           0
         NFxFlg=           0 DoJE=T BraDBF=F KetDBF=T FulRan=T
         Omega=  0.000000  0.000000  1.000000  0.000000  0.000000 ICntrl=     500 IOpCl=  0
         NMat0=    1 NMatS0=    1 NMatT0=    0 NMatD0=    1 NMtDS0=    0 NMtDT0=    0
         I1Cent=           4 NGrid=           0.
 Petite list used in FoFCou.
 Requested convergence on RMS density matrix=1.00D-08 within 128 cycles.
 Requested convergence on MAX density matrix=1.00D-06.
 Requested convergence on             energy=1.00D-06.
 No special actions if energy rises.
 Keep R1 ints in memory in canonical form, NReq=142054091.
 Integral accuracy reduced to 1.0D-05 until final iterations.
 Initial convergence to 1.0D-05 achieved.  Increase integral accuracy.
 SCF Done:  E(RB3LYP) =  -390.639241479     A.U. after   13 cycles
             Convg  =    0.4604D-08             -V/T =  2.0101
 Calling FoFJK, ICntrl=      2127 FMM=F ISym2X=0 I1Cent= 0 IOpClX= 0 NMat=1 NMatS=1 NMatT=0.
 ***** Axes restored to original set *****
 -------------------------------------------------------------------
 Center     Atomic                   Forces (Hartrees/Bohr)
 Number     Number              X              Y              Z
 -------------------------------------------------------------------
      1        6          -0.041659108   -0.044062268    0.010498253
      2        6          -0.012259773    0.037147614   -0.002475113
      3        6          -0.022452686    0.013473658    0.021099642
      4        6           0.032560816   -0.035233505   -0.030011971
      5        6          -0.050958450    0.029767523    0.037367925
      6        6           0.044932294   -0.040100201   -0.012465246
      7        6           0.001561379   -0.010976903   -0.010744396
      8        6           0.008592166    0.002924223   -0.002141939
      9        6          -0.008411579    0.011091715    0.023921018
     10        6           0.010677543   -0.018914457   -0.005608180
     11        1           0.013764238    0.013115957   -0.007470176
     12        1           0.012310104    0.006760787    0.013077243
     13        1           0.012557881    0.008982825   -0.020922227
     14        1           0.000002994    0.004890695    0.002698178
     15        1           0.001684888    0.000894259    0.000680873
     16        1           0.006846840    0.007717129   -0.008795081
     17        1          -0.004765953    0.007338562    0.004823119
     18        1          -0.012813418   -0.010295024   -0.000576419
     19        1          -0.000633794    0.005154024    0.005967291
     20        1           0.007358319    0.011128583   -0.003049051
     21        1           0.017580994   -0.000521021    0.000245544
     22        1          -0.004658898    0.003273182   -0.000737845
     23        1          -0.001498049   -0.022052041   -0.015528228
     24        1          -0.015401762    0.013254665   -0.005654800
     25        1          -0.004671034    0.007592770   -0.000398728
     26        1           0.009754048   -0.002352753    0.006200313
 -------------------------------------------------------------------
 Cartesian Forces:  Max     0.050958450 RMS     0.017522686

 GradGradGradGradGradGradGradGradGradGradGradGradGradGradGradGradGradGrad
 Berny optimization.
 Using GEDIIS/GDIIS optimizer.
 Internal  Forces:  Max     0.061407870 RMS     0.010511386
 Search for a local minimum.
 Step number   2 out of a maximum of  121
 All quantities printed in internal units (Hartrees-Bohrs-Radians)
 Mixed Optimization -- RFO/linear search
 Update second derivatives using D2CorX and points    1    2
 DE= -4.39D-02 DEPred=-4.45D-02 R= 9.87D-01
 SS=  1.41D+00  RLast= 3.00D-01 DXNew= 5.0454D-01 8.9997D-01
 Trust test= 9.87D-01 RLast= 3.00D-01 DXMaxT set to 5.05D-01
 Use linear search instead of GDIIS.
     Eigenvalues ---    0.00230   0.00365   0.00554   0.00647   0.01178
     Eigenvalues ---    0.01453   0.01903   0.02521   0.02651   0.02864
     Eigenvalues ---    0.02920   0.03025   0.03080   0.03122   0.03191
     Eigenvalues ---    0.05477   0.06224   0.06660   0.06740   0.07076
     Eigenvalues ---    0.07217   0.07670   0.07748   0.15113   0.15913
     Eigenvalues ---    0.15956   0.15994   0.15997   0.16000   0.16000
     Eigenvalues ---    0.16000   0.16000   0.16000   0.16000   0.16000
     Eigenvalues ---    0.16000   0.16000   0.16000   0.16234   0.21713
     Eigenvalues ---    0.22014   0.22030   0.22495   0.24081   0.24591
     Eigenvalues ---    0.24953   0.25063   0.25905   0.26661   0.28271
     Eigenvalues ---    0.28410   0.29097   0.29370   0.30165   0.30282
     Eigenvalues ---    0.30661   0.30745   0.31625   0.32169   0.32397
     Eigenvalues ---    0.33883   0.34376   0.35214   0.35311   0.35896
     Eigenvalues ---    0.37255   0.37732   0.51314   0.53300   0.60279
     Eigenvalues ---    0.61636   0.683891000.000001000.000001000.00000
     Eigenvalues --- 1000.000001000.000001000.000001000.000001000.00000
     Eigenvalues --- 1000.000001000.000001000.000001000.000001000.00000
     Eigenvalues --- 1000.000001000.000001000.000001000.000001000.00000
     Eigenvalues --- 1000.000001000.000001000.000001000.000001000.00000
     Eigenvalues --- 1000.000001000.000001000.000001000.000001000.00000
     Eigenvalues --- 1000.000001000.000001000.000001000.000001000.00000
     Eigenvalues --- 1000.000001000.000001000.000001000.000001000.00000
     Eigenvalues --- 1000.00000
 RFO step:  Lambda=-2.76124001D-02 EMin= 2.29979957D-03
 Quartic linear search produced a step of  1.40367.
 Iteration  1 RMS(Cart)=  0.12562490 RMS(Int)=  0.00851208
 Iteration  2 RMS(Cart)=  0.01144015 RMS(Int)=  0.00206973
 Iteration  3 RMS(Cart)=  0.00008390 RMS(Int)=  0.00206861
 Iteration  4 RMS(Cart)=  0.00000026 RMS(Int)=  0.00206861
 Variable       Old X    -DE/DX   Delta X   Delta X   Delta X     New X
                                 (Linear)    (Quad)   (Total)
    R1        2.87424  -0.00740  -0.02468  -0.01300  -0.03768   2.83655
    R2        2.04373   0.00942   0.03141   0.00411   0.03552   2.07925
    R3        2.13526  -0.01695  -0.06444  -0.02063  -0.08507   2.05019
    R4        2.17109  -0.02530  -0.09147  -0.05319  -0.14466   2.02643
    R5        2.53557   0.01492   0.05343  -0.02947   0.02396   2.55953
    R6        2.89123  -0.00856  -0.02936  -0.01549  -0.04486   2.84638
    R7        2.61428   0.05236   0.14374  -0.02986   0.11389   2.72817
    R8        2.06518  -0.00090  -0.00253  -0.00153  -0.00406   2.06113
    R9        2.58059  -0.00186   0.02170  -0.04182  -0.02013   2.56047
   R10        2.05293   0.00127  -0.00044   0.00846   0.00802   2.06095
   R11        2.60284   0.06141   0.16065  -0.03261   0.12804   2.73087
   R12        2.10862  -0.01311  -0.04603  -0.01690  -0.06293   2.04569
   R13        2.58039  -0.00630  -0.00485  -0.01937  -0.02422   2.55617
   R14        2.87068   0.00301   0.02669  -0.02306   0.00363   2.87431
   R15        2.85289  -0.00531  -0.01681  -0.00936  -0.02616   2.82673
   R16        2.05203   0.00360   0.01335   0.00008   0.01344   2.06547
   R17        2.10456  -0.01350  -0.05143  -0.01079  -0.06223   2.04234
   R18        2.07853   0.00097   0.00451  -0.00118   0.00332   2.08185
   R19        2.10816  -0.00958  -0.03505  -0.00930  -0.04435   2.06381
   R20        2.03861   0.00885   0.03289  -0.00204   0.03086   2.06946
   R21        2.06576   0.00519   0.01936   0.00043   0.01979   2.08554
   R22        2.15306  -0.02422  -0.09726  -0.03120  -0.12846   2.02459
   R23        2.12130  -0.01570  -0.06127  -0.01388  -0.07515   2.04616
   R24        2.09054  -0.00589  -0.02047  -0.00583  -0.02630   2.06424
   R25        2.07929  -0.00722  -0.03548   0.00975  -0.02573   2.05356
    A1        2.12725  -0.02167  -0.10192  -0.11207  -0.21742   1.90983
    A2        1.88378   0.01076   0.05180   0.02313   0.06712   1.95090
    A3        1.93532  -0.00095   0.00155   0.02716   0.02758   1.96290
    A4        1.92839  -0.00136  -0.01843  -0.04464  -0.07322   1.85516
    A5        1.75019   0.01451   0.07270   0.08080   0.15670   1.90689
    A6        1.81181   0.00177   0.01165   0.05618   0.06273   1.87454
    A7        2.11717  -0.00299  -0.00936  -0.00509  -0.01548   2.10169
    A8        1.93989   0.01218   0.03991   0.03939   0.07842   2.01831
    A9        2.21397  -0.00893  -0.02853  -0.02396  -0.05374   2.16023
   A10        2.17680   0.00903   0.05689  -0.01118   0.04567   2.22247
   A11        2.08889  -0.00917  -0.05798  -0.00008  -0.05810   2.03079
   A12        2.01695   0.00016   0.00135   0.01148   0.01280   2.02975
   A13        2.16680  -0.00050   0.00988  -0.01934  -0.01107   2.15573
   A14        2.04911   0.00036  -0.00019   0.00690   0.00511   2.05422
   A15        2.06218   0.00048  -0.00612   0.01876   0.01103   2.07322
   A16        2.27127  -0.00419   0.01953  -0.07216  -0.05270   2.21857
   A17        2.02328  -0.00041  -0.03484   0.04943   0.01451   2.03779
   A18        1.98760   0.00463   0.01553   0.02348   0.03893   2.02653
   A19        2.08368  -0.00285  -0.01681   0.00456  -0.01233   2.07135
   A20        2.09309  -0.00038   0.02891  -0.05102  -0.02219   2.07090
   A21        2.10506   0.00326  -0.01179   0.04724   0.03539   2.14045
   A22        2.23507   0.00099   0.00631   0.00126   0.00616   2.24123
   A23        2.10457  -0.00967  -0.05029  -0.02635  -0.07819   2.02638
   A24        1.93415   0.00900   0.04661   0.03496   0.08029   2.01444
   A25        1.94252   0.00856   0.04631   0.01327   0.06057   2.00309
   A26        1.98534  -0.01005  -0.04803  -0.02185  -0.06892   1.91643
   A27        1.93192  -0.00053  -0.00688  -0.00248  -0.00890   1.92302
   A28        1.84070   0.00238   0.01221   0.02277   0.03634   1.87704
   A29        1.98166  -0.00907  -0.05224  -0.05441  -0.10615   1.87550
   A30        1.77512   0.00795   0.04384   0.04367   0.08786   1.86298
   A31        1.97194   0.00294   0.01427  -0.00717   0.00434   1.97628
   A32        1.86658   0.00011   0.00264   0.03954   0.03975   1.90633
   A33        1.92378   0.00516   0.01446   0.01139   0.02330   1.94708
   A34        1.80846   0.00484   0.03828   0.04748   0.08331   1.89177
[...]
 .00067944,0.00117904,-0.00740952,0.01073355,-0.01521662,-0.09158353,0.
 04359850,-0.08465360,-0.00005521,-0.00000181,0.00002947,-0.00055387,-0
 .00020947,0.00006815,-0.00003877,0.00004634,0.00004754,-0.00005059,0.0
 0002615,-0.00000032,-0.00001392,-0.00001248,0.00001151,-0.00003600,-0.
 00000997,0.00003078,0.00001668,-0.00000317,0.00000140,-0.00009202,-0.0
 0000876,0.00003847,0.00052716,-0.00038224,0.00052737,0.01195464,-0.010
 16779,0.02046188,0.09596341,-0.00008335,-0.00005723,-0.00001679,0.0000
 7794,0.00022218,-0.00007762,0.00020784,-0.00027995,0.00034190,0.000098
 66,0.00030415,-0.00025355,-0.00110763,-0.00166047,-0.00127691,0.002695
 75,0.00082659,-0.00129031,0.01139853,-0.01726434,0.02037469,0.04304435
 ,-0.08782121,0.08927013,0.00004185,-0.00000139,-0.00000737,0.00064215,
 0.00010770,0.00046781,0.00003564,-0.00004166,-0.00003829,0.00003219,-0
 .00001404,0.00000266,0.00001038,0.00001022,-0.00000666,0.00003169,0.00
 000697,-0.00002192,-0.00006904,0.00000180,-0.00008335,0.00009603,0.000
 02790,-0.00002252,-0.00043912,0.00074944,-0.00074512,0.00409616,-0.004
 76447,0.00782966,-0.05094124,0.09922341,-0.00002616,-0.00000666,-0.000
 01452,0.00003024,-0.00002547,-0.00000471,0.00000875,0.00004471,0.00014
 072,0.00014203,-0.00018454,0.00000609,-0.00086525,0.00006668,-0.000537
 59,0.00063429,-0.00174160,-0.00048821,0.00445207,-0.00333124,0.0118841
 4,-0.08204744,0.08610017,-0.21568290,0.00001376,0.00000437,-0.00000515
 ,0.00025403,0.00003096,-0.00019175,0.00000928,-0.00000561,-0.00000652,
 0.00000140,-0.00000105,0.00000236,0.00000133,-0.00000017,-0.00000183,0
 .00000031,0.00000130,-0.00000655,-0.00001136,-0.00001766,-0.00000680,0
 .00001450,0.00000225,-0.00002567,-0.00054170,0.00066740,0.00040297,-0.
 00842668,0.00667573,-0.01553023,0.09307489,-0.09454734,0.23357496,0.00
 000496,0.00001555,-0.00007815,-0.00005246,-0.00008391,0.00008503,0.000
 22929,0.00018955,0.00010067,-0.00018002,0.00006604,0.00013330,-0.00059
 080,-0.00005199,-0.00172868,-0.00188135,0.00121293,0.00108935,0.013596
 07,0.01729142,0.01038772,-0.11919320,-0.09592962,-0.05945118,-0.000026
 27,-0.00000022,0.00003341,-0.00024562,-0.00002292,0.00051541,-0.000007
 81,0.00001748,0.00001957,-0.00004243,0.00002451,0.00001050,-0.00000751
 ,-0.00000589,0.00000729,-0.00002364,-0.00000749,0.00001357,-0.00001599
 ,0.00000032,-0.00003893,-0.00005562,-0.00000845,0.00005111,0.00048292,
 -0.00098621,-0.00043080,-0.01249523,-0.01570183,-0.01232661,-0.0081470
 4,-0.00988034,-0.00625256,0.12798967,-0.00000837,-0.00003786,0.0001023
 4,0.00005621,0.00025002,-0.00013124,-0.00017857,-0.00044450,-0.0001715
 8,0.00020754,0.00040515,-0.00010770,0.00113663,-0.00107420,0.00176783,
 0.00181240,0.00110302,-0.00266342,-0.01014950,-0.02404910,-0.00978592,
 -0.09973081,-0.17389821,-0.08487033,0.00002625,-0.00000857,-0.00003941
 ,-0.00026239,-0.00014687,-0.00075527,0.00001515,-0.00002625,-0.0000323
 6,0.00006299,-0.00003943,-0.00001096,0.00000881,0.00001115,-0.00001278
 ,0.00003329,0.00000703,-0.00003027,0.00004771,0.00004290,0.00007677,0.
 00004814,0.00000925,-0.00009926,0.00061056,0.00089830,0.00040446,-0.00
 476984,-0.00687613,-0.00408332,0.00711106,0.01061017,0.00614182,0.1039
 1610,0.19348527,-0.00003400,-0.00002744,0.00005027,0.00005013,0.000133
 12,-0.00008340,-0.00009295,-0.00017694,0.00005459,0.00010465,0.0000986
 5,-0.00004898,0.00004770,-0.00015677,0.00066086,0.00072274,0.00070558,
 -0.00109162,-0.00309932,-0.00577657,-0.00234269,-0.06102967,-0.0849245
 8,-0.10206203,0.00003316,0.00000031,-0.00002680,0.00019242,0.00013394,
 -0.00024666,0.00001710,-0.00002606,-0.00002812,0.00004240,-0.00002321,
 -0.00000490,0.00000881,0.00000837,-0.00000916,0.00002503,0.00000721,-0
 .00001890,-0.00002163,-0.00000237,-0.00001497,0.00003801,-0.00000543,-
 0.00004330,0.00027796,0.00012301,0.00030998,0.01072445,0.01562549,0.01
 103704,-0.01581414,-0.01993398,-0.01383901,0.06832092,0.09424665,0.107
 35066,-0.00099573,-0.00367319,0.00223672,-0.01394746,0.01042886,0.0065
 5144,-0.00006340,0.00097174,-0.00036195,-0.00061311,0.00082004,0.00017
 242,0.00068540,-0.00009551,-0.00058992,-0.00002877,-0.00002963,0.00007
 130,0.00001914,-0.00001773,-0.00001780,-0.00001109,-0.00000112,0.00000
 306,-0.20178163,0.09940169,0.08901862,0.00000849,-0.00003251,0.0000566
 6,0.00015658,0.00019595,0.00007075,0.00055833,-0.00021941,-0.00023300,
 -0.00069629,0.00064398,0.00082430,0.00002592,0.00004454,-0.00006854,0.
 00139229,0.00038603,-0.00051146,-0.00001439,0.00025554,-0.00005424,0.0
 0000758,0.00000361,0.00000141,0.00000681,-0.00000345,-0.00000209,0.,0.
 00000445,-0.00000496,0.00000322,-0.00000074,-0.00000031,0.21682572,-0.
 00180585,-0.00244430,0.00210047,-0.01608658,0.01423630,0.00812007,0.00
 095475,0.00021791,-0.00081139,-0.00071406,-0.00181656,0.00091724,0.000
 17492,-0.00003744,-0.00015380,0.00003115,0.00001908,-0.00001329,-0.000
 03711,-0.00001561,0.00002846,0.00001169,0.00001196,-0.00001312,0.10175
 036,-0.11647780,-0.05922957,-0.00003718,0.00002451,0.00003907,0.000071
 04,0.00006717,0.00025027,-0.00002861,-0.00013491,-0.00015304,-0.000919
 03,0.00047476,0.00071170,0.00005925,0.00033254,-0.00013179,0.00050242,
 -0.00310491,0.00053664,-0.00000833,0.00001349,0.00000044,0.00000008,-0
 .00000177,0.00000276,-0.00000717,0.00000015,0.00000593,-0.00001437,0.0
 0001409,-0.00000020,-0.00000754,0.00001425,0.00000915,-0.11129975,0.12
 765924,0.00180764,0.00347464,-0.00123960,0.01269752,-0.01136673,-0.008
 45102,-0.00036000,-0.00082442,0.00020214,0.00052623,-0.00021069,-0.000
 45769,-0.00065184,0.00004504,0.00032195,0.00005731,0.00003091,0.000009
 87,-0.00001323,0.00001423,-0.00000420,0.00000002,-0.00000366,-0.000006
 50,0.08847455,-0.05750465,-0.10102879,0.00005770,0.00003547,0.00002467
 ,-0.00043991,0.00033050,0.00039219,0.00026246,-0.00018548,0.00019213,0
 .00118624,-0.00043852,-0.00014462,-0.00007194,-0.00012218,0.00002719,-
 0.00053754,0.00062257,0.00106968,0.00000638,-0.00019275,0.00003131,0.0
 0000221,0.00000021,0.00000892,-0.00000118,0.00000317,0.00000306,0.0000
 0175,-0.00000030,0.00000120,-0.00000105,-0.00000964,-0.00000219,-0.099
 45303,0.06298530,0.10493181,0.00081876,-0.00018493,-0.00002308,0.01312
 119,-0.00850547,0.01559911,-0.00162195,-0.00119656,0.00132780,-0.00020
 089,0.00040454,0.00072114,0.00029054,-0.00012067,-0.00025215,-0.000076
 29,0.00000220,0.00001908,0.00002997,-0.00001544,-0.00001409,-0.0000102
 2,-0.00000128,0.00000858,-0.12566548,0.06169985,-0.09744962,-0.0000268
 1,-0.00002931,-0.00001276,-0.00013398,-0.00004590,-0.00003114,-0.00021
 970,0.00012031,-0.00020509,0.00026385,-0.00001381,-0.00027189,-0.00080
 722,-0.00079951,-0.00119499,0.00029968,-0.00011946,-0.00025641,0.00004
 919,0.00011214,0.00003287,0.00000445,0.00000322,0.00000339,0.00000325,
 -0.00000315,-0.00000498,0.00000613,-0.00000697,-0.00000050,0.00000622,
 -0.00000133,-0.00000503,-0.01314063,0.00890428,-0.01803046,0.13490742,
 0.00075938,0.00013269,-0.00092358,0.00958131,-0.01455979,0.01674795,-0
 .00233270,0.00116140,0.00212613,0.00051334,-0.00031925,0.00045324,-0.0
 0010390,0.00020104,-0.00003440,-0.00001143,-0.00011711,0.00013935,0.00
 007167,0.00006996,-0.00008996,-0.00002561,-0.00002747,0.00003644,0.064
 37105,-0.09262808,0.07850543,0.00003212,-0.00005557,0.00002939,-0.0000
 7270,0.00017388,-0.00013150,-0.00054636,0.00063043,0.00007349,-0.00008
 036,-0.00012569,-0.00039496,-0.00090315,-0.00096233,-0.00099543,-0.000
 05287,0.00020502,0.00011171,-0.00006508,-0.00007242,-0.00012675,-0.000
 00160,0.00000696,-0.00000386,0.00001787,-0.00000075,-0.00001003,0.0000
 3345,-0.00002547,-0.00000513,0.00001736,-0.00003256,-0.00002157,0.0086
 8722,-0.00741652,0.01216191,-0.06595145,0.10228703,-0.00085932,0.00020
 700,0.00061026,-0.00822855,0.01060852,-0.01250707,0.00211986,-0.001195
 34,-0.00171791,0.00003641,0.00002214,-0.00046598,-0.00027003,-0.000228
 78,0.00024710,0.00010799,0.00013934,-0.00011505,-0.00009978,-0.0000753
 8,0.00009377,0.00004532,0.00003302,-0.00003791,-0.09988705,0.07834209,
 -0.17710538,-0.00000479,0.00006063,-0.00001829,-0.00007468,0.00004478,
 -0.00011370,0.00095488,-0.00036024,0.00000610,0.00014757,-0.00012015,0
 .00051092,0.00057606,0.00068812,0.00080742,-0.00018547,0.00008586,0.00
 019765,-0.00002341,-0.00007110,0.00000226,-0.00000530,-0.00000762,-0.0
 0000511,-0.00002055,0.00000189,0.00001483,-0.00004233,0.00003126,0.000
 00385,-0.00002485,0.00003869,0.00003036,0.00818248,-0.00658456,0.01231
 331,0.10913813,-0.08958697,0.19174521,0.00069115,-0.00034231,-0.000649
 69,-0.00680982,-0.01463587,-0.00958213,-0.00217509,0.00040364,0.001296
 15,-0.00062836,0.00004921,-0.00000221,0.00036910,0.00012913,-0.0002972
 5,-0.00009372,-0.00009354,0.00012089,0.00008335,0.00004842,-0.00007581
 ,-0.00003482,-0.00002346,0.00003650,-0.08704761,-0.07198037,-0.0547886
 5,0.00000185,-0.00004942,0.00002407,-0.00023765,0.00042283,0.00072419,
 -0.00008134,-0.00013130,-0.00004281,0.00039813,0.00026930,0.00011227,0
 .00080018,-0.00024804,0.00098425,0.00039102,-0.00012599,-0.00013767,-0
 .00004118,0.00008828,-0.00009032,-0.00000537,0.00000281,-0.00000976,0.
 00001783,-0.00000206,-0.00001090,0.00003612,-0.00002455,-0.00000482,0.
 00001869,-0.00003029,-0.00002317,0.01158532,0.01847994,0.01454708,-0.0
 0793377,-0.01392517,-0.01156693,0.09067753,0.00118462,0.00023113,-0.00
 049110,-0.00876147,-0.02029265,-0.00760662,-0.00317628,0.00145433,0.00
 120739,-0.00012475,-0.00058994,-0.00046137,-0.00003987,0.00029255,0.00
 000634,-0.00012331,-0.00018070,0.00002649,0.00010910,0.00009658,-0.000
 08125,-0.00004331,-0.00003756,0.00003161,-0.07074513,-0.18126655,-0.10
 842743,-0.00000731,-0.00007701,-0.00002496,-0.00048271,0.00074830,0.00
 046264,0.00003661,0.00017594,-0.00000841,0.00038480,0.00009640,0.00030
 060,0.00076532,-0.00042424,0.00127148,-0.00015400,0.00016227,-0.000025
 68,0.00011053,-0.00001606,0.00011199,0.00000061,0.00000850,-0.00000076
 ,0.00001874,-0.00000158,-0.00001692,0.00004163,-0.00003527,-0.00000137
 ,0.00002548,-0.00003649,-0.00002837,-0.00648822,-0.01164072,-0.0088158
 3,0.00573619,0.01146068,0.00794074,0.08170819,0.19984544,-0.00038304,0
 .00019842,0.00064310,0.00869692,0.01615127,0.01316262,0.00159538,0.001
 05868,-0.00146319,0.00069515,-0.00007540,0.00023046,-0.00024354,0.0000
 8754,0.00007796,0.00004202,-0.00000470,-0.00003411,-0.00002418,0.00001
 271,0.00001355,0.00000965,0.00000210,-0.00000292,-0.05326519,-0.105398
 97,-0.12713218,-0.00000781,0.00002002,-0.00002541,-0.00007225,-0.00026
 215,-0.00009297,-0.00003212,-0.00008156,-0.00016990,-0.00031707,0.0000
 6136,0.00015490,-0.00099660,0.00025982,-0.00133892,-0.00021674,0.00002
 733,0.00014975,0.00000155,-0.00005735,0.00003600,0.00000055,-0.0000021
 6,0.00000317,-0.00000494,0.00000201,0.00000102,-0.00000450,0.00000079,
 0.00000307,-0.00000360,0.00000612,0.00000227,-0.00582675,-0.00858157,-
 0.00818542,-0.00909429,-0.01802880,-0.01451709,0.05946399,0.11461235,0
 .13845875,-0.00000503,0.00001340,-0.00001389,-0.00005124,-0.00007518,0
 .00005164,0.00014736,0.00057157,-0.00006492,-0.00015902,-0.00003996,0.
 00024907,0.00108248,-0.00110335,0.00012501,-0.01170772,-0.01745848,-0.
 00999025,-0.00274856,0.00128657,0.00151565,-0.00048300,0.00013906,-0.0
 0021893,-0.00006001,0.00002626,0.00005894,-0.11637149,-0.09393719,-0.0
 6373754,-0.00000235,-0.00000757,0.00000248,0.00000191,-0.00000949,0.00
 000619,0.00000184,0.00000446,-0.00000411,0.00010412,-0.00007580,-0.000
 08441,-0.00076073,0.00078227,-0.00048225,0.00029428,0.00005206,0.00024
 060,0.00080340,-0.00034755,0.00140674,0.00025746,-0.00017773,-0.000194
 48,0.00009009,-0.00006168,-0.00004361,0.00020864,0.00001937,-0.0001947
 0,0.00002383,0.00002772,-0.00005479,0.00003362,-0.00002658,-0.00000546
 ,0.00001068,-0.00000204,-0.00000982,0.12429480,0.00002500,0.00000090,-
 0.00002243,-0.00006008,0.00006835,0.00003065,0.00018399,0.00000014,-0.
 00016625,0.00014781,0.00051146,0.00011023,0.00136407,-0.00072577,-0.00
 037830,-0.00842696,-0.01184866,-0.00250452,-0.00169223,0.00090085,0.00
 060926,-0.00037230,-0.00018611,-0.00028599,-0.00001026,-0.00001427,0.0
 0001781,-0.09314789,-0.17872317,-0.09127734,-0.00001126,0.00001987,0.0
 0001601,-0.00001925,0.00001042,0.00000253,-0.00000569,-0.00000255,0.00
 000215,0.00001617,-0.00003395,-0.00000170,0.00069673,-0.00012185,-0.00
 017703,0.00001452,0.00000386,0.00016940,0.00039701,-0.00031041,0.00096
 799,-0.00020922,0.00026980,-0.00000248,0.00008581,-0.00005010,0.000014
 99,-0.00011150,-0.00022035,0.00017146,-0.00000080,-0.00001030,-0.00000
 954,-0.00000194,0.00001640,-0.00001109,0.00001312,0.00001947,-0.000003
 16,0.10552154,0.19519986,0.00001522,0.00001031,-0.00001405,-0.00002747
 ,0.00001740,0.00002057,0.00015878,0.00008351,-0.00015558,-0.00017048,-
 0.00082545,0.00042841,-0.00027551,0.00007359,0.00030134,0.01199886,0.0
 1774197,0.01186127,0.00214370,0.00001887,-0.00130317,0.00047617,0.0000
 0069,0.00022588,-0.00004720,0.00003151,0.00003152,-0.06301975,-0.08928
 815,-0.10623619,-0.00000298,0.00000086,0.00000696,-0.00000557,-0.00000
 137,0.00000013,0.00000452,0.00000098,-0.00000264,0.00007160,-0.0000124
 0,-0.00003913,0.00028710,0.00008732,-0.00020600,-0.00033576,0.00012743
 ,-0.00023170,-0.00082956,0.00027084,-0.00158104,-0.00015023,0.00003519
 ,0.00017337,-0.00005788,0.00000254,0.00004015,-0.00009661,0.00009185,0
 .00005213,0.00000543,0.00000347,-0.00001172,0.00001232,-0.00000924,-0.
 00000925,0.00001191,-0.00000177,-0.00000200,0.06798850,0.09716159,0.11
 528679,0.00002306,0.00002081,-0.00003418,-0.00003210,-0.00007778,0.000
 02714,0.00005306,0.00020330,0.00002574,0.00023653,-0.00080540,0.000130
 47,-0.00183920,-0.00288941,0.00276859,-0.01477877,0.01651717,0.0058010
 6,-0.00012017,0.00146917,-0.00036060,-0.00022941,0.00026055,-0.0000891
 5,-0.00001564,0.00001703,0.00003424,-0.16317965,0.12128640,0.05591203,
 -0.00001315,0.00002182,0.00002210,-0.00002730,0.00001927,-0.00000001,0
 .00000068,-0.00000753,0.00000175,0.00004025,0.00000848,-0.00003335,-0.
 00000147,-0.00004402,-0.00034345,-0.00072767,0.00082214,0.00067832,0.0
 0013114,0.00003432,-0.00013619,0.00133690,-0.00045069,-0.00039144,0.00
 035938,0.00012622,-0.00029219,0.00035163,0.00002830,-0.00024822,-0.000
 00983,-0.00001022,-0.00000845,0.00000474,0.00001471,-0.00002083,0.0000
 1548,0.00003249,-0.00000158,0.01297796,-0.01221388,-0.00493486,0.17457
 909,-0.00001585,-0.00000255,0.00000835,-0.00001480,0.00001392,0.000003
 10,0.00005650,0.00034168,-0.00008532,-0.00007868,-0.00062243,0.0002389
 4,-0.00176816,-0.00148320,0.00187540,-0.00919321,0.01288275,0.00339395
 ,0.00059028,-0.00052004,-0.00034794,-0.00112045,-0.00212824,0.00125018
 ,-0.00002685,0.00001317,0.00002504,0.12356985,-0.18061570,-0.06050186,
 0.00000523,-0.00001699,-0.00001134,0.00001639,-0.00001289,0.00000293,0
 .00000318,0.00000539,-0.00000343,0.00010445,-0.00005273,-0.00006519,0.
 00021974,0.00041595,-0.00036892,-0.00054164,0.00039087,0.00041257,0.00
 015507,0.00023442,-0.00017815,-0.00041739,-0.00308193,0.00116898,0.000
 07418,0.00015925,-0.00001461,0.,0.00010609,-0.00009538,0.00002287,0.00
 003104,-0.00002962,0.00001615,-0.00001903,0.00000870,0.00000060,-0.000
 01944,-0.00001105,0.01534169,-0.01576436,-0.00554462,-0.13398967,0.199
 11202,-0.00002574,-0.00001863,0.00000634,0.00001257,0.00004948,-0.0000
 4048,0.00005939,-0.00019356,0.00015295,-0.00003722,0.00077349,0.000009
 42,0.00250952,0.00269988,-0.00144631,0.01172543,-0.01549960,-0.0067523
 0,-0.00015637,-0.00099473,0.00019557,0.00022323,0.00023498,-0.00049551
 ,0.00004449,-0.00000714,0.00000538,0.05538501,-0.05882349,-0.07622193,
 0.00000817,-0.00001427,-0.00001093,0.00001845,-0.00000847,-0.00000088,
 -0.00000072,0.00000445,0.00000019,-0.00005553,0.00000550,0.00003717,-0
 .00040418,-0.00017543,-0.00014481,0.00099286,-0.00058962,-0.00014020,-
 0.00016398,-0.00008929,0.00009756,-0.00039661,0.00119127,0.00068437,-0
 .00025383,-0.00001584,0.00019291,-0.00026588,-0.00015140,0.00025514,-0
 .00001611,-0.00000532,-0.00001149,-0.00000157,-0.00002027,0.00001602,-
 0.00001382,-0.00000452,0.00000561,0.01102159,-0.01100506,-0.00528880,-
 0.06313017,0.06334559,0.07846724,-0.00001783,-0.00000441,0.00001755,0.
 00002677,-0.00005318,-0.00000185,-0.00021313,0.00008337,0.00005617,0.0
 0019937,0.00068031,-0.00016754,0.00030308,-0.00027072,-0.00017265,0.01
 251355,-0.01145829,0.02114794,-0.00228962,0.00027228,0.00185148,0.0000
 1775,0.00025022,0.00050943,0.00002510,-0.00001802,-0.00001568,-0.09550
 659,0.04748078,-0.08813205,0.00000279,-0.00000623,-0.00000827,0.000011
 33,-0.00000527,0.00000041,-0.00000159,0.00000132,0.00000171,-0.0000189
 2,-0.00000037,0.00003253,-0.00032118,0.00030396,0.00053308,-0.00008470
 ,-0.00025417,-0.00040585,-0.00120859,-0.00096931,-0.00121637,0.0003211
 7,-0.00012841,-0.00014744,0.00020024,-0.00002592,-0.00011966,0.0000736
 6,-0.00000869,-0.00004236,0.00000368,0.00000819,-0.00000366,-0.0000020
 9,-0.00000053,0.00001062,-0.00000771,-0.00000593,-0.00000122,-0.007983
 31,0.00781747,-0.01322025,-0.00913552,0.00699053,-0.01707898,0.1030923
 0,0.00002034,-0.00000487,-0.00001346,-0.00003866,0.00007427,0.00000979
 ,0.00015034,-0.00012767,-0.00002060,-0.00001442,0.00064975,-0.00039613
 ,0.00089062,-0.00053786,-0.00078079,0.00316574,-0.00871437,0.01270263,
 -0.00121635,0.00068994,0.00117020,0.00018482,-0.00002640,0.00048143,0.
 00001601,-0.00002829,-0.00000610,0.04931155,-0.09177322,0.08602305,-0.
 00000891,0.00001461,0.00001169,-0.00001864,0.00001693,-0.00000049,-0.0
 0000485,-0.00000293,0.00000659,-0.00003186,-0.00001336,0.00002198,0.00
 030432,-0.00044045,-0.00058444,-0.00013560,-0.00010201,-0.00007578,-0.
 00077551,-0.00067530,-0.00059155,-0.00011567,0.00030597,0.00011442,-0.
 00015927,-0.00024827,0.00013227,0.00002116,-0.00005206,-0.00006426,-0.
 00000446,-0.00001564,0.00001005,-0.00000171,0.00001654,-0.00001153,-0.
 00000309,0.00002660,0.00000634,-0.01046340,0.01099047,-0.02007692,0.00
 960644,-0.00936700,0.01931202,-0.05067896,0.09934463,-0.00001997,-0.00
 001951,0.00000461,0.00007048,0.00004483,-0.00006360,-0.00009361,-0.000
 50647,0.00033369,0.00036880,0.00017066,-0.00007157,-0.00060655,0.00143
 258,0.00089168,-0.00629143,0.00984124,-0.01548934,0.00225201,-0.001523
 56,-0.00154880,-0.00005473,-0.00022664,-0.00043668,0.00009112,-0.00002
 165,-0.00003954,-0.08945325,0.08595947,-0.21404939,0.00000637,0.000006
 44,-0.00000496,0.00000981,0.00000216,-0.00000379,-0.00000316,-0.000004
 25,0.00000120,-0.00013765,0.00007725,0.00006340,-0.00021716,-0.0009121
 5,-0.00032844,0.00015168,0.00002542,0.00025284,0.00080333,0.00079514,0
 .00079519,-0.00018592,0.00006133,0.00007181,-0.00015593,0.00001642,0.0
 0008904,-0.00006894,0.00007834,0.00005942,-0.00005443,-0.00003333,0.00
 001381,-0.00001436,-0.00000260,0.00001370,-0.00002536,0.00002474,0.000
 02188,-0.00756727,0.00657083,-0.01334726,0.00462322,-0.00447628,0.0104
 2777,0.09657291,-0.09738039,0.23234337||-0.00000128,-0.00000062,0.0000
 0136,0.,-0.00000340,0.00000417,-0.00001084,0.00000035,-0.00000015,0.00
 000620,-0.00000574,-0.00000264,-0.00002077,0.00001820,0.00000566,0.000
 02600,-0.00002619,-0.00001125,-0.00000288,0.00000464,-0.00000282,0.000
 00269,-0.00000085,-0.00000586,0.00000813,0.00000608,0.00000248,0.00000
 162,0.00000499,0.00000257,-0.00000147,-0.00000268,0.00000155,-0.000002
 98,-0.00000270,0.00000356,-0.00000166,-0.00000210,0.00000073,0.0000003
 9,-0.00000038,0.00000103,-0.00000024,0.00000154,0.00000150,0.00000416,
 0.00000092,0.00000325,0.00000042,-0.00000022,-0.00000290,0.00000147,0.
 00000175,-0.00000209,0.00000565,0.00000131,-0.00000074,0.00000170,0.00
 000362,0.00000019,-0.00000286,-0.00000071,0.00000239,-0.00000726,-0.00
 000086,-0.00000011,-0.00000470,-0.00000181,-0.00000044,-0.00000230,0.0
 0000128,0.00000129,0.00000120,0.00000202,-0.00000281,-0.00000040,0.000
 00157,0.00000008|||@


 WE LEARN WISDOM FROM FAILURE MUCH MORE THAN FROM SUCCESS.
 WE DISCOVER WHAT WILL DO BY FINDING OUT WHAT WILL NOT DO...
 AND HE WHO NEVER MADE A MISTAKE NEVER MADE A DISCOVERY
 Job cpu time:  0 days  0 hours  2 minutes 10.0 seconds.
 File lengths (MBytes):  RWF=    107 Int=      0 D2E=      0 Chk=      3 Scr=      1
 Normal termination of Gaussian 09 at Thu Oct 26 01:20:41 2023.
