 Entering Gaussian System, Link 0=g16
 Initial command:
 /home/zcwang/Gaussian16_AVX2/g16/l1.exe "/home/zcwang/Gaussian16_AVX2/g16/tmp/Gau-38946.inp" -scrdir="/home/zcwang/Gaussian16_AVX2/g16/tmp/"
 Default is to use a total of   4 processors:
                                4 via shared-memory
                                1 via Linda
 Entering Link 1 = /home/zcwang/Gaussian16_AVX2/g16/l1.exe PID=     38949.
  
 Copyright (c) 1988-2021, Gaussian, Inc.  All Rights Reserved.
  
 This is part of the Gaussian(R) 16 program.  It is based on
 the Gaussian(R) 09 system (copyright 2009, Gaussian, Inc.),
 the Gaussian(R) 03 system (copyright 2003, Gaussian, Inc.),
 the Gaussian(R) 98 system (copyright 1998, Gaussian, Inc.),
 the Gaussian(R) 94 system (copyright 1995, Gaussian, Inc.),
 the Gaussian 92(TM) system (copyright 1992, Gaussian, Inc.),
 the Gaussian 90(TM) system (copyright 1990, Gaussian, Inc.),
 the Gaussian 88(TM) system (copyright 1988, Gaussian, Inc.),
 the Gaussian 86(TM) system (copyright 1986, Carnegie Mellon
 University), and the Gaussian 82(TM) system (copyright 1983,
 Carnegie Mellon University). Gaussian is a federally registered
 trademark of Gaussian, Inc.
  
 This software contains proprietary and confidential information,
 including trade secrets, belonging to Gaussian, Inc.
  
 This software is provided under written license and may be
 used, copied, transmitted, or stored only in accord with that
 written license.
  
 The following legend is applicable only to US Government
 contracts under FAR:
  
                    RESTRICTED RIGHTS LEGEND
  
 Use, reproduction and disclosure by the US Government is
 subject to restrictions as set forth in subparagraphs (a)
 and (c) of the Commercial Computer Software - Restricted
 Rights clause in FAR 52.227-19.
  
 Gaussian, Inc.
 340 Quinnipiac St., Bldg. 40, Wallingford CT 06492
  
  
 ---------------------------------------------------------------
 Warning -- This program may not be used in any manner that
 competes with the business of Gaussian, Inc. or will provide
 assistance to any competitor of Gaussian, Inc.  The licensee
 of this program is prohibited from giving any competitor of
 Gaussian, Inc. access to this program.  By using this program,
 the user acknowledges that Gaussian, Inc. is engaged in the
 business of creating and licensing software in the field of
 computational chemistry and represents and warrants to the
 licensee that it is not a competitor of Gaussian, Inc. and that
 it will not use this program in any manner prohibited above.
 ---------------------------------------------------------------
  

 Cite this work as:
 Gaussian 16, Revision C.02,
 M. J. Frisch, G. W. Trucks, H. B. Schlegel, G. E. Scuseria, 
 M. A. Robb, J. R. Cheeseman, G. Scalmani, V. Barone, 
 G. A. Petersson, H. Nakatsuji, X. Li, M. Caricato, A. V. Marenich, 
 J. Bloino, B. G. Janesko, R. Gomperts, B. Mennucci, H. P. Hratchian, 
 J. V. Ortiz, A. F. Izmaylov, J. L. Sonnenberg, D. Williams-Young, 
 F. Ding, F. Lipparini, F. Egidi, J. Goings, B. Peng, A. Petrone, 
 T. Henderson, D. Ranasinghe, V. G. Zakrzewski, J. Gao, N. Rega, 
 G. Zheng, W. Liang, M. Hada, M. Ehara, K. Toyota, R. Fukuda, 
 J. Hasegawa, M. Ishida, T. Nakajima, Y. Honda, O. Kitao, H. Nakai, 
 T. Vreven, K. Throssell, J. A. Montgomery, Jr., J. E. Peralta, 
 F. Ogliaro, M. J. Bearpark, J. J. Heyd, E. N. Brothers, K. N. Kudin, 
 V. N. Staroverov, T. A. Keith, R. Kobayashi, J. Normand, 
 K. Raghavachari, A. P. Rendell, J. C. Burant, S. S. Iyengar, 
 J. Tomasi, M. Cossi, J. M. Millam, M. Klene, C. Adamo, R. Cammi, 
 J. W. Ochterski, R. L. Martin, K. Morokuma, O. Farkas, 
 J. B. Foresman, and D. J. Fox, Gaussian, Inc., Wallingford CT, 2019.
 
 ******************************************
 Gaussian 16:  ES64L-G16RevC.02  7-Dec-2021
                29-Oct-2023 
 ******************************************
 %nprocshared=12
 Will use up to   12 processors via shared memory.
 %mem=3000MB
 ----------------------------------------------------------------
 # td=(nstates=40) b3lyp/6-311+g(2d,p) scrf(smd, solvent=ethanol)
 ----------------------------------------------------------------
 1/38=1,172=1/1;
 2/12=2,17=6,18=5,40=1/2;
 3/5=4,6=6,7=112,11=9,25=1,30=1,70=32201,72=4,74=-5/1,2,3,8;
 4//1;
 5/5=2,38=5,53=4/2;
 8/6=1,10=2,108=40/1;
 9/41=40,42=1,70=2/14;
 6/7=2,8=2,9=2,10=2/1;
 99/5=1,9=1/99;
 ---
 B-1
 ---
 Symbolic Z-matrix:
 Charge =  0 Multiplicity = 1
 C                     4.18604  -0.98524  -0.00011 
 C                     2.96568  -0.09996   0.00002 
 C                     1.72426  -0.63647  -0.00021 
 C                     0.45258   0.05967  -0.00018 
 C                    -0.74108  -0.57941  -0.00021 
 C                    -2.06437   0.04042  -0.00014 
 C                    -3.15288  -0.76323   0.00025 
 C                    -4.60417  -0.38585   0.00043 
 C                     3.26039   1.37827   0.00057 
 C                    -2.13318   1.55026  -0.00054 
 H                     4.81718  -0.79122  -0.87967 
 H                     4.8171   -0.79165   0.8796 
 H                     3.9221   -2.04745  -0.00037 
 H                     1.65238  -1.72528  -0.00049 
 H                     0.46913   1.14647  -0.00011 
 H                    -0.73542  -1.67054  -0.0003 
 H                    -2.96813  -1.83864   0.00044 
 H                    -4.77347   0.69375   0.00148 
 H                    -5.11489  -0.80271  -0.87923 
 H                    -5.11504  -0.80447   0.87914 
 H                     2.363     2.00076   0.00008 
 H                     3.85901   1.65372   0.88055 
 H                     3.86032   1.65418  -0.87836 
 H                    -1.62727   1.96404  -0.8821 
 H                    -3.15869   1.92368  -0.00045 
 H                    -1.62693   1.9646    0.88057 
 
                          Input orientation:                          
 ---------------------------------------------------------------------
 Center     Atomic      Atomic             Coordinates (Angstroms)
 Number     Number       Type             X           Y           Z
 ---------------------------------------------------------------------
      1          6           0        4.186043   -0.985243   -0.000113
      2          6           0        2.965678   -0.099955    0.000017
      3          6           0        1.724259   -0.636470   -0.000213
      4          6           0        0.452578    0.059668   -0.000179
      5          6           0       -0.741079   -0.579413   -0.000205
      6          6           0       -2.064372    0.040415   -0.000137
      7          6           0       -3.152878   -0.763225    0.000253
      8          6           0       -4.604173   -0.385851    0.000427
      9          6           0        3.260391    1.378273    0.000567
     10          6           0       -2.133175    1.550261   -0.000541
     11          1           0        4.817179   -0.791217   -0.879673
     12          1           0        4.817098   -0.791647    0.879598
     13          1           0        3.922096   -2.047445   -0.000374
     14          1           0        1.652379   -1.725280   -0.000493
     15          1           0        0.469127    1.146468   -0.000113
     16          1           0       -0.735417   -1.670538   -0.000304
     17          1           0       -2.968126   -1.838635    0.000440
     18          1           0       -4.773466    0.693748    0.001475
     19          1           0       -5.114894   -0.802710   -0.879231
     20          1           0       -5.115042   -0.804470    0.879137
     21          1           0        2.363003    2.000757    0.000075
     22          1           0        3.859006    1.653716    0.880554
     23          1           0        3.860320    1.654180   -0.878355
     24          1           0       -1.627265    1.964044   -0.882102
     25          1           0       -3.158688    1.923675   -0.000452
     26          1           0       -1.626926    1.964596    0.880567
 ---------------------------------------------------------------------
                    Distance matrix (angstroms):
                    1          2          3          4          5
     1  C    0.000000
     2  C    1.507656   0.000000
     3  C    2.486367   1.352394   0.000000
     4  C    3.876932   2.518164   1.449752   0.000000
     5  C    4.943807   3.737637   2.465998   1.353973   0.000000
     6  C    6.334008   5.032008   3.848623   2.517024   1.461264
     7  C    7.342278   6.154401   4.878784   3.698171   2.418793
     8  C    8.810628   7.575248   6.333393   5.076339   3.867940
     9  C    2.538314   1.507320   2.533553   3.102021   4.454694
    10  C    6.808913   5.359246   4.434139   2.984625   2.544296
    11  H    1.099820   2.163274   3.219247   4.532908   5.631390
    12  H    1.099819   2.163298   3.219286   4.532966   5.631379
    13  H    1.094505   2.169667   2.611769   4.059246   4.888795
    14  H    2.639528   2.089602   1.091180   2.150712   2.653611
    15  H    4.284817   2.790401   2.180418   1.086926   2.107905
    16  H    4.968943   4.020552   2.668202   2.098796   1.091140
    17  H    7.204888   6.183287   4.843932   3.912131   2.558394
    18  H    9.115471   7.779738   6.632489   5.264370   4.228603
    19  H    9.344174   8.158590   6.897414   5.702032   4.466856
    20  H    9.344300   8.158874   6.897646   5.702484   4.467152
    21  H    3.498524   2.185454   2.713478   2.723518   4.036410
    22  H    2.801184   2.156094   3.252360   3.862697   5.188775
    23  H    2.800707   2.156133   3.252840   3.863466   5.189697
    24  H    6.578050   5.112079   4.332795   2.954688   2.834121
    25  H    7.899802   6.450034   5.513394   4.063959   3.479983
    26  H    6.577823   5.111727   4.332639   2.954454   2.834161
                    6          7          8          9         10
     6  C    0.000000
     7  C    1.353027   0.000000
     8  C    2.575324   1.499556   0.000000
     9  C    5.490261   6.761363   8.059994   0.000000
    10  C    1.511413   2.528243   3.139166   5.396308   0.000000
    11  H    6.987198   8.018532   9.471049   2.811601   7.386665
    12  H    6.987195   8.018390   9.470901   2.811509   7.386845
    13  H    6.340107   7.190583   8.686666   3.489040   7.043422
    14  H    4.114841   4.900617   6.398321   3.495389   5.005955
    15  H    2.764411   4.094612   5.299658   2.800873   2.633444
    16  H    2.166444   2.582118   4.076481   5.026105   3.511022
    17  H    2.085090   1.091165   2.187974   7.010201   3.490238
    18  H    2.786761   2.179238   1.092792   8.062967   2.775744
    19  H    3.284715   2.150479   1.099275   8.699203   3.898617
    20  H    3.285352   2.150401   1.099254   8.699663   3.900016
    21  H    4.841961   6.169647   7.364607   1.092150   4.518690
    22  H    6.201997   7.468805   8.749849   1.099357   6.057497
    23  H    6.203022   7.469990   8.751093   1.099338   6.058328
    24  H    2.160850   3.247159   3.893950   5.001141   1.097411
    25  H    2.178117   2.686906   2.724580   6.442208   1.091382
    26  H    2.160896   3.247228   3.894001   5.000404   1.097412
                   11         12         13         14         15
    11  H    0.000000
    12  H    1.759271   0.000000
    13  H    1.775514   1.775502   0.000000
    14  H    3.414878   3.414920   2.292467   0.000000
    15  H    4.840848   4.840974   4.703624   3.105966   0.000000
    16  H    5.690151   5.690088   4.672739   2.388423   3.063731
    17  H    7.904597   7.904354   6.893385   4.621895   4.552532
    18  H    9.744846   9.744558   9.117398   6.866089   5.262104
    19  H    9.932080  10.086529   9.164548   6.886167   5.979418
    20  H   10.086754   9.932148   9.164518   6.886191   5.980149
    21  H    3.819955   3.820165   4.338054   3.793196   2.077637
    22  H    3.161359   2.626355   3.805077   4.130746   3.538948
    23  H    2.625937   3.160363   3.804825   4.131149   3.539671
    24  H    7.008732   7.226841   6.903977   5.014420   2.416856
    25  H    8.471017   8.471164   8.118331   6.038314   3.710134
    26  H    7.226302   7.008732   6.903925   5.014508   2.416272
                   16         17         18         19         20
    16  H    0.000000
    17  H    2.239028   0.000000
    18  H    4.679283   3.110019   0.000000
    19  H    4.550325   2.540782   1.769633   0.000000
    20  H    4.550231   2.539853   1.769639   1.758369   0.000000
    21  H    4.804021   6.569769   7.255168   8.034398   8.035123
    22  H    5.738928   7.718863   8.730057   9.468989   9.304634
    23  H    5.739819   7.720085   8.731483   9.305416   9.470526
    24  H    3.844886   4.127609   3.506129   4.451796   4.788655
    25  H    4.334814   3.767133   2.029835   3.468742   3.470414
    26  H    3.845117   4.127712   3.505506   4.787566   4.453614
                   21         22         23         24         25
    21  H    0.000000
    22  H    1.770228   0.000000
    23  H    1.770230   1.758910   0.000000
    24  H    4.086786   5.770826   5.496328   0.000000
    25  H    5.522229   7.077929   7.078829   1.767539   0.000000
    26  H    4.086087   5.494734   5.770618   1.762669   1.767530
                   26
    26  H    0.000000
 Stoichiometry    C10H16
 Framework group  C1[X(C10H16)]
 Deg. of freedom    72
 Full point group                 C1      NOp   1
 Largest Abelian subgroup         C1      NOp   1
 Largest concise Abelian subgroup C1      NOp   1
                         Standard orientation:                         
 ---------------------------------------------------------------------
 Center     Atomic      Atomic             Coordinates (Angstroms)
 Number     Number       Type             X           Y           Z
 ---------------------------------------------------------------------
      1          6           0        4.186043   -0.985243   -0.000113
      2          6           0        2.965678   -0.099955    0.000017
      3          6           0        1.724259   -0.636470   -0.000213
      4          6           0        0.452578    0.059668   -0.000179
      5          6           0       -0.741079   -0.579413   -0.000205
      6          6           0       -2.064372    0.040415   -0.000137
      7          6           0       -3.152878   -0.763225    0.000253
      8          6           0       -4.604173   -0.385851    0.000427
      9          6           0        3.260391    1.378273    0.000567
     10          6           0       -2.133175    1.550261   -0.000541
     11          1           0        4.817179   -0.791217   -0.879673
     12          1           0        4.817098   -0.791647    0.879598
     13          1           0        3.922096   -2.047445   -0.000374
     14          1           0        1.652379   -1.725280   -0.000493
     15          1           0        0.469127    1.146468   -0.000113
     16          1           0       -0.735417   -1.670538   -0.000304
     17          1           0       -2.968126   -1.838635    0.000440
     18          1           0       -4.773466    0.693748    0.001475
     19          1           0       -5.114894   -0.802710   -0.879231
     20          1           0       -5.115042   -0.804470    0.879137
     21          1           0        2.363003    2.000757    0.000075
     22          1           0        3.859006    1.653716    0.880554
     23          1           0        3.860320    1.654180   -0.878355
     24          1           0       -1.627265    1.964044   -0.882102
     25          1           0       -3.158688    1.923675   -0.000452
     26          1           0       -1.626926    1.964596    0.880567
 ---------------------------------------------------------------------
 Rotational constants (GHZ):           4.0045797           0.4300443           0.3921027
 Standard basis: 6-311+G(2d,p) (5D, 7F)
 There are   386 symmetry adapted cartesian basis functions of A   symmetry.
 There are   366 symmetry adapted basis functions of A   symmetry.
   366 basis functions,   548 primitive gaussians,   386 cartesian basis functions
    38 alpha electrons       38 beta electrons
       nuclear repulsion energy       478.6004483981 Hartrees.
 NAtoms=   26 NActive=   26 NUniq=   26 SFac= 1.00D+00 NAtFMM=   60 NAOKFM=F Big=F
 Integral buffers will be    131072 words long.
 Regular integral format.
 Two-electron integral symmetry is turned on.
 ------------------------------------------------------------------------------
 Polarizable Continuum Model (PCM)
 =================================
 Model                : PCM.
 Atomic radii         : SMD-Coulomb.
 Polarization charges : Total charges.
 Charge compensation  : None.
 Solution method      : On-the-fly selection.
 Cavity type          : VdW (van der Waals Surface) (Alpha=1.000).
 Cavity algorithm     : GePol (No added spheres)
                        Default sphere list used, NSphG=   26.
                        Lebedev-Laikov grids with approx.  5.0 points / Ang**2.
                        Smoothing algorithm: York/Karplus (Gamma=1.0000).
                        Polarization charges: spherical gaussians, with
                                              point-specific exponents (IZeta= 3).
                        Self-potential: point-specific (ISelfS= 7).
                        Self-field    : sphere-specific E.n sum rule (ISelfD= 2).
 Solvent              : Ethanol, Eps=  24.852000 Eps(inf)=   1.852593
 ------------------------------------------------------------------------------
 ------------------------------------------------------------------------------
 Atomic radii for non-electrostatic terms: SMD-CDS.
 ------------------------------------------------------------------------------
 Nuclear repulsion after PCM non-electrostatic terms =      478.5987318692 Hartrees.
 One-electron integrals computed using PRISM.
 NBasis=   366 RedAO= T EigKep=  3.04D-06  NBF=   366
 NBsUse=   364 1.00D-06 EigRej=  9.38D-07 NBFU=   364
 ExpMin= 4.38D-02 ExpMax= 4.56D+03 ExpMxC= 6.82D+02 IAcc=3 IRadAn=         5 AccDes= 0.00D+00
 Harris functional with IExCor=  402 and IRadAn=       5 diagonalized for initial guess.
 HarFok:  IExCor=  402 AccDes= 0.00D+00 IRadAn=         5 IDoV= 1 UseB2=F ITyADJ=14
 ICtDFT=  3500011 ScaDFX=  1.000000  1.000000  1.000000  1.000000
 FoFCou: FMM=F IPFlag=           0 FMFlag=      100000 FMFlg1=           0
         NFxFlg=           0 DoJE=T BraDBF=F KetDBF=T FulRan=T
         wScrn=  0.000000 ICntrl=       500 IOpCl=  0 I1Cent=   200000004 NGrid=           0
         NMat0=    1 NMatS0=      1 NMatT0=    0 NMatD0=    1 NMtDS0=    0 NMtDT0=    0
 Petite list used in FoFCou.
 Requested convergence on RMS density matrix=1.00D-08 within 128 cycles.
 Requested convergence on MAX density matrix=1.00D-06.
 Requested convergence on             energy=1.00D-06.
 No special actions if energy rises.
 Inv3:  Mode=1 IEnd=    11116875.
 Iteration    1 A*A^-1 deviation from unit magnitude is 3.55D-15 for    460.
 Iteration    1 A*A^-1 deviation from orthogonality  is 3.14D-15 for   1342    412.
 Iteration    1 A^-1*A deviation from unit magnitude is 2.89D-15 for    228.
 Iteration    1 A^-1*A deviation from orthogonality  is 1.84D-15 for   1550    268.
 Error on total polarization charges =  0.06389
 SCF Done:  E(RB3LYP) =  -390.797921544     A.U. after   12 cycles
            NFock= 12  Conv=0.29D-08     -V/T= 2.0052
 SMD-CDS (non-electrostatic) energy       (kcal/mol) =      -1.08
 (included in total energy above)
 DoSCS=F DFT=T ScalE2(SS,OS)=  1.000000  1.000000
 ExpMin= 4.38D-02 ExpMax= 4.56D+03 ExpMxC= 6.82D+02 IAcc=3 IRadAn=         5 AccDes= 0.00D+00
 HarFok:  IExCor=  205 AccDes= 0.00D+00 IRadAn=         5 IDoV=-2 UseB2=F ITyADJ=14
 ICtDFT= 12500011 ScaDFX=  1.000000  1.000000  1.000000  1.000000
 Range of M.O.s used for correlation:    11   364
 NBasis=   366 NAE=    38 NBE=    38 NFC=    10 NFV=     0
 NROrb=    354 NOA=    28 NOB=    28 NVA=   326 NVB=   326

 **** Warning!!: The largest alpha MO coefficient is  0.12491458D+03

 NEqPCM:  Using non-equilibrium solvation (IEInf=1, Eps=  24.8520, EpsInf=   1.8526)
 Inv3:  Mode=1 IEnd=    11116875.
 Iteration    1 A*A^-1 deviation from unit magnitude is 3.66D-15 for    120.
 Iteration    1 A*A^-1 deviation from orthogonality  is 2.49D-15 for   1342    412.
 Iteration    1 A^-1*A deviation from unit magnitude is 3.44D-15 for    120.
 Iteration    1 A^-1*A deviation from orthogonality  is 1.68D-15 for   1848    506.
 Orbital symmetries:
       Occupied  (A) (A) (A) (A) (A) (A) (A) (A) (A) (A) (A) (A)
                 (A) (A) (A) (A) (A) (A) (A) (A) (A) (A) (A) (A)
                 (A) (A) (A) (A) (A) (A) (A) (A) (A) (A) (A) (A)
                 (A) (A)
       Virtual   (A) (A) (A) (A) (A) (A) (A) (A) (A) (A) (A) (A)
                 (A) (A) (A) (A) (A) (A) (A) (A) (A) (A) (A) (A)
                 (A) (A) (A) (A) (A) (A) (A) (A) (A) (A) (A) (A)
                 (A) (A) (A) (A) (A) (A) (A) (A) (A) (A) (A) (A)
                 (A) (A) (A) (A) (A) (A) (A) (A) (A) (A) (A) (A)
                 (A) (A) (A) (A) (A) (A) (A) (A) (A) (A) (A) (A)
                 (A) (A) (A) (A) (A) (A) (A) (A) (A) (A) (A) (A)
                 (A) (A) (A) (A) (A) (A) (A) (A) (A) (A) (A) (A)
                 (A) (A) (A) (A) (A) (A) (A) (A) (A) (A) (A) (A)
                 (A) (A) (A) (A) (A) (A) (A) (A) (A) (A) (A) (A)
                 (A) (A) (A) (A) (A) (A) (A) (A) (A) (A) (A) (A)
                 (A) (A) (A) (A) (A) (A) (A) (A) (A) (A) (A) (A)
                 (A) (A) (A) (A) (A) (A) (A) (A) (A) (A) (A) (A)
                 (A) (A) (A) (A) (A) (A) (A) (A) (A) (A) (A) (A)
                 (A) (A) (A) (A) (A) (A) (A) (A) (A) (A) (A) (A)
                 (A) (A) (A) (A) (A) (A) (A) (A) (A) (A) (A) (A)
                 (A) (A) (A) (A) (A) (A) (A) (A) (A) (A) (A) (A)
                 (A) (A) (A) (A) (A) (A) (A) (A) (A) (A) (A) (A)
                 (A) (A) (A) (A) (A) (A) (A) (A) (A) (A) (A) (A)
                 (A) (A) (A) (A) (A) (A) (A) (A) (A) (A) (A) (A)
                 (A) (A) (A) (A) (A) (A) (A) (A) (A) (A) (A) (A)
                 (A) (A) (A) (A) (A) (A) (A) (A) (A) (A) (A) (A)
                 (A) (A) (A) (A) (A) (A) (A) (A) (A) (A) (A) (A)
                 (A) (A) (A) (A) (A) (A) (A) (A) (A) (A) (A) (A)
                 (A) (A) (A) (A) (A) (A) (A) (A) (A) (A) (A) (A)
                 (A) (A) (A) (A) (A) (A) (A) (A) (A) (A) (A) (A)
                 (A) (A) (A) (A) (A) (A) (A) (A) (A) (A) (A) (A)
                 (A) (A)
   160 initial guesses have been made.
 Convergence on wavefunction:    0.001000000000000
 Iteration     1 Dimension   160 NMult     0 NNew    160
 CISAX will form    84 AO SS matrices at one time.
 New state      5 was old state      6
 New state      6 was old state      7
 New state      7 was old state      8
 New state      8 was old state      9
 New state      9 was old state     11
 New state     10 was old state     12
 New state     11 was old state     10
 New state     12 was old state     13
 New state     13 was old state     14
 New state     14 was old state     15
 New state     15 was old state     20
 New state     16 was old state     21
 New state     17 was old state     16
 New state     19 was old state     26
 New state     20 was old state     19
 New state     21 was old state     17
 New state     25 was old state     34
 New state     26 was old state     35
 New state     27 was old state     29
 New state     29 was old state     27
 New state     31 was old state     38
 New state     33 was old state     31
 New state     34 was old state     33
 New state     35 was old state     25
 New state     36 was old state     37
 New state     37 was old state     43
 New state     38 was old state     36
 New state     40 was old state     45
 Iteration     2 Dimension   240 NMult   160 NNew     80
 New state      6 was old state      7
 New state      7 was old state      6
 New state      9 was old state     10
 New state     10 was old state      9
 New state     14 was old state     15
 New state     15 was old state     14
 New state     19 was old state     21
 New state     20 was old state     19
 New state     21 was old state     20
 New state     22 was old state     23
 New state     23 was old state     22
 New state     25 was old state     26
 New state     26 was old state     25
 New state     27 was old state     29
 New state     28 was old state     27
 New state     29 was old state     30
 New state     30 was old state     28
 New state     31 was old state     35
 New state     32 was old state     31
 New state     33 was old state     32
 New state     34 was old state     33
 New state     35 was old state     34
 New state     36 was old state     37
 New state     37 was old state     36
 New state     38 was old state     39
 New state     39 was old state     38
 Iteration     3 Dimension   320 NMult   240 NNew     80
 Iteration     4 Dimension   370 NMult   320 NNew     50
 Iteration     5 Dimension   380 NMult   370 NNew     10
 ***********************************************************************
 Excited states from <AA,BB:AA,BB> singles matrix:
 ***********************************************************************
 
 Ground to excited state transition densities written to RWF  633
 Ground to excited state transition electric dipole moments (Au):
       state          X           Y           Z        Dip. S.      Osc.
         1        -3.6317     -0.5240     -0.0000     13.4638      1.3803
         2        -0.0004     -0.0001      0.1116      0.0125      0.0015
         3        -0.0000     -0.0000     -0.0764      0.0058      0.0007
         4         0.0003     -0.0000     -0.1546      0.0239      0.0031
         5        -0.3189     -0.0586     -0.0002      0.1052      0.0139
         6         0.2457     -0.1927      0.0000      0.0975      0.0137
         7        -0.0009      0.0006     -0.0479      0.0023      0.0003
         8        -0.0002      0.0002     -0.0451      0.0020      0.0003
         9        -0.1976      0.1346     -0.0005      0.0572      0.0084
        10         0.0001     -0.0001     -0.0296      0.0009      0.0001
        11         0.0014     -0.0002      0.0297      0.0009      0.0001
        12        -0.2655      0.0284      0.0004      0.0713      0.0108
        13         0.0001     -0.0007     -0.0134      0.0002      0.0000
        14         0.0088     -0.1535      0.0000      0.0236      0.0037
        15         0.0001     -0.0003      0.0411      0.0017      0.0003
        16        -0.0001     -0.0000      0.0179      0.0003      0.0001
        17        -0.0002      0.0000      0.0134      0.0002      0.0000
        18         0.0039      0.0010     -0.2374      0.0564      0.0097
        19         0.1005      0.0257      0.0090      0.0108      0.0019
        20         0.0001      0.0001     -0.0539      0.0029      0.0005
        21         0.0002     -0.0000     -0.0028      0.0000      0.0000
        22         0.0774     -0.0561     -0.0008      0.0091      0.0016
        23        -0.0007      0.0001     -0.2378      0.0566      0.0099
        24         0.0002     -0.0004     -0.0043      0.0000      0.0000
        25         0.1253      0.0020     -0.0006      0.0157      0.0028
        26         0.0012      0.0002     -0.0398      0.0016      0.0003
        27         0.2207      0.0930      0.0000      0.0574      0.0104
        28        -0.0002     -0.0002      0.0731      0.0053      0.0010
        29         0.5552      0.4345     -0.0000      0.4971      0.0923
        30        -0.0013     -0.0015     -0.0694      0.0048      0.0009
        31        -0.4812     -0.7778      0.0004      0.8365      0.1562
        32         0.0014      0.0018      0.0207      0.0004      0.0001
        33        -0.0001      0.0003     -0.1915      0.0367      0.0069
        34         0.0001      0.0005      0.1853      0.0343      0.0065
        35        -0.0001     -0.0000     -0.0344      0.0012      0.0002
        36         0.0000      0.0001      0.1114      0.0124      0.0024
        37        -0.0003     -0.0004     -0.1149      0.0132      0.0026
        38        -0.1025     -0.0308     -0.0002      0.0114      0.0022
        39         0.0000      0.0002     -0.2285      0.0522      0.0103
        40         0.0001      0.0002     -0.0564      0.0032      0.0006
 Ground to excited state transition velocity dipole moments (Au):
       state          X           Y           Z        Dip. S.      Osc.
         1         0.5565      0.0814      0.0000      0.3164      1.3715
         2         0.0001      0.0000     -0.0173      0.0003      0.0011
         3         0.0000      0.0000      0.0131      0.0002      0.0006
         4        -0.0000      0.0000      0.0296      0.0009      0.0030
         5         0.0616      0.0129      0.0000      0.0040      0.0133
         6        -0.0491      0.0380     -0.0000      0.0039      0.0122
         7         0.0002     -0.0001      0.0082      0.0001      0.0002
         8         0.0000     -0.0000      0.0081      0.0001      0.0002
         9         0.0420     -0.0272      0.0001      0.0025      0.0076
        10        -0.0000      0.0000      0.0086      0.0001      0.0002
        11        -0.0003      0.0000     -0.0082      0.0001      0.0002
        12         0.0592     -0.0035     -0.0001      0.0035      0.0103
        13        -0.0000      0.0002      0.0024      0.0000      0.0000
        14        -0.0048      0.0376     -0.0000      0.0014      0.0041
        15        -0.0000      0.0001     -0.0104      0.0001      0.0003
        16         0.0000      0.0000     -0.0045      0.0000      0.0001
        17         0.0000     -0.0000     -0.0021      0.0000      0.0000
        18        -0.0010     -0.0002      0.0619      0.0038      0.0099
        19        -0.0268     -0.0044     -0.0024      0.0007      0.0019
        20        -0.0000     -0.0000      0.0142      0.0002      0.0005
        21        -0.0000      0.0000      0.0032      0.0000      0.0000
        22        -0.0199      0.0151      0.0002      0.0006      0.0016
        23         0.0002     -0.0000      0.0612      0.0037      0.0095
        24        -0.0001      0.0001      0.0009      0.0000      0.0000
        25        -0.0295     -0.0058      0.0002      0.0009      0.0022
        26        -0.0003     -0.0001      0.0113      0.0001      0.0003
        27        -0.0599     -0.0301     -0.0000      0.0045      0.0110
        28         0.0001      0.0000     -0.0169      0.0003      0.0007
        29        -0.1525     -0.1194      0.0000      0.0375      0.0898
        30         0.0004      0.0004      0.0202      0.0004      0.0010
        31         0.1327      0.2166     -0.0001      0.0645      0.1537
        32        -0.0004     -0.0005     -0.0059      0.0000      0.0001
        33         0.0000     -0.0001      0.0597      0.0036      0.0084
        34        -0.0000     -0.0001     -0.0525      0.0028      0.0065
        35         0.0000      0.0000      0.0104      0.0001      0.0003
        36        -0.0000     -0.0000     -0.0328      0.0011      0.0025
        37         0.0001      0.0001      0.0349      0.0012      0.0028
        38         0.0331      0.0054      0.0001      0.0011      0.0026
        39        -0.0000     -0.0001      0.0688      0.0047      0.0107
        40        -0.0000     -0.0000      0.0175      0.0003      0.0007
 Ground to excited state transition magnetic dipole moments (Au):
       state          X           Y           Z
         1        -0.0000     -0.0004      0.3587
         2        -0.2323      0.0687      0.0000
         3        -0.0166     -0.1810      0.0000
         4         0.0905      0.0194     -0.0007
         5         0.0001      0.0001      0.3044
         6        -0.0002     -0.0001     -0.1990
         7        -0.0814      0.0435      0.0005
         8         0.0511     -0.0697      0.0003
         9        -0.0001      0.0001      0.7215
        10        -0.1773      0.2732     -0.0005
        11         0.1178      0.3412      0.0003
        12         0.0003      0.0022     -0.0688
        13         0.0055     -0.4380     -0.0018
        14        -0.0001      0.0026     -0.3543
        15         0.0396      0.1124     -0.0004
        16         0.2248      0.2944      0.0001
        17        -0.2958     -0.0970      0.0001
        18        -0.2241      0.1094     -0.0067
        19         0.0083     -0.0047     -0.1726
        20        -0.0977     -0.0728      0.0003
        21        -0.2025      0.0834     -0.0007
        22         0.0003      0.0007     -0.2944
        23        -0.0059      0.2443      0.0006
        24         0.0751      0.1843      0.0000
        25        -0.0002     -0.0005      0.4416
        26         0.2769     -0.6679      0.0008
        27        -0.0021      0.0047      0.1531
        28         0.0693      0.2750     -0.0004
        29         0.0006      0.0010     -0.4514
        30        -0.0402      0.7777     -0.0003
        31        -0.0025     -0.0009     -0.5286
        32        -1.3058      0.0358      0.0008
        33        -0.1473      0.3690     -0.0004
        34        -0.2538      0.3526      0.0010
        35        -0.0141     -0.5911      0.0003
        36        -0.0855      0.3181      0.0002
        37        -0.3551      0.3301     -0.0001
        38         0.0006      0.0003      0.1508
        39        -0.4300     -0.3379      0.0001
        40         0.0742     -0.0019      0.0004
 Ground to excited state transition velocity quadrupole moments (Au):
       state          XX          YY          ZZ          XY          XZ          YZ
         1        -0.0932      0.0380      0.0187     -0.3924      0.0002      0.0001
         2        -0.0000     -0.0001      0.0000     -0.0002     -0.0833     -0.1505
         3         0.0002     -0.0001      0.0002     -0.0001      0.2086      0.0372
         4         0.0001     -0.0001      0.0000     -0.0002      0.0211      0.1008
         5        -0.4179      0.0028      0.0172      0.0345     -0.0000      0.0001
         6        -0.5360      0.0814      0.0328     -0.0808      0.0003     -0.0003
         7         0.0013     -0.0002     -0.0001      0.0001      0.0011     -0.0922
         8         0.0004     -0.0001      0.0001      0.0002      0.1609      0.0584
         9         3.6536      0.0091     -0.0282      0.7387     -0.0001      0.0001
        10        -0.0012     -0.0000      0.0003     -0.0003     -0.1878      0.0005
        11         0.0036      0.0005      0.0009      0.0013     -0.3747      0.0548
        12        -0.9196     -0.1290     -0.1678     -0.3080     -0.0022      0.0002
        13        -0.0117     -0.0001      0.0001     -0.0021      0.4651      0.0584
        14        -2.2176      0.0053      0.0350     -0.3545     -0.0026     -0.0002
        15        -0.0024     -0.0000      0.0003     -0.0003     -0.1679     -0.0236
        16         0.0011      0.0000     -0.0000      0.0001     -0.1155      0.0509
        17        -0.0004     -0.0003      0.0002     -0.0001      0.0665     -0.1794
        18         0.0066      0.0017     -0.0037     -0.0071     -0.0929     -0.2043
        19         0.1642      0.0467     -0.0948     -0.1806      0.0039      0.0079
        20         0.0005     -0.0002      0.0001      0.0002     -0.0250     -0.0472
        21        -0.0007     -0.0001     -0.0001     -0.0004     -0.0699     -0.0982
        22        -0.1738     -0.0698      0.0159     -0.1199     -0.0003      0.0004
        23        -0.0009      0.0003     -0.0002     -0.0002     -0.1747      0.0654
        24         0.0021      0.0004     -0.0000      0.0005     -0.1559      0.0575
        25         1.4400      0.0275      0.0179      0.5309      0.0001      0.0001
        26        -0.0004      0.0017      0.0006      0.0013      0.4000      0.1033
        27        -0.0896      0.2668      0.0878      0.2488     -0.0025     -0.0007
        28         0.0019     -0.0001     -0.0001     -0.0002      0.0326     -0.0040
        29         0.0187     -0.1753     -0.0076     -0.2416     -0.0010     -0.0002
        30        -0.0004      0.0008     -0.0000     -0.0006     -0.6580     -0.1555
        31         0.0177      0.4422     -0.0482     -0.5314      0.0008     -0.0004
        32         0.0005     -0.0009      0.0000      0.0012     -0.1455     -0.2349
        33         0.0014     -0.0006      0.0000     -0.0004     -0.1088     -0.0728
        34        -0.0001     -0.0003      0.0001      0.0009     -0.2352     -0.1484
        35        -0.0001      0.0000      0.0002     -0.0000      0.0914      0.1310
        36         0.0001     -0.0000     -0.0002      0.0002     -0.1455     -0.0112
        37        -0.0005      0.0002      0.0001     -0.0001     -0.3483     -0.1503
        38        -1.8404      0.1088     -0.0834      0.1600      0.0003      0.0002
        39         0.0019     -0.0000      0.0001      0.0004      0.2583     -0.3780
        40         0.0011      0.0000     -0.0000      0.0002     -0.0814     -0.1049
 <0|del|b> * <b|rxdel|0> + <0|del|b> * <b|delr+rdel|0>
 Rotatory Strengths (R) in cgs (10**-40 erg-esu-cm/Gauss)
       state          XX          YY          ZZ    R(velocity)    E-M Angle
         1        -0.1068      0.1110     -0.2480     -0.0813       90.00
         2         0.0109     -0.0629     -0.0127     -0.0216       90.00
         3        -0.0108      0.0022      0.0004     -0.0027       90.00
         4        -0.0482     -0.0400      0.0010     -0.0291       90.00
         5         0.0239      0.0452      0.0039      0.0243       90.00
         6        -0.0212      0.0426      0.0108      0.0107       90.00
         7         0.0004     -0.0458     -0.0060     -0.0171       90.00
         8         0.0244      0.0099     -0.0075      0.0089       90.00
         9         0.2296     -0.0005     -0.0101      0.0730       90.00
        10         0.0079      0.0023      0.0074      0.0059       90.00
        11         0.0144     -0.0700     -0.0319     -0.0292       90.00
        12         0.0261      0.0064      0.0088      0.0138       90.00
        13        -0.2643     -0.0032      0.0110     -0.0855       90.00
        14         0.2959      0.0028      0.0010      0.0999       89.57
        15         0.0405      0.0017     -0.0076      0.0115       90.00
        16         0.0006      0.0086      0.0060      0.0051       90.00
        17         0.0023     -0.0293     -0.0066     -0.0112       90.00
        18        -1.2224      0.6452      0.0246     -0.1842       90.75
        19         1.1950     -0.6233     -0.0109      0.1869       87.51
        20         0.0104      0.0066      0.0035      0.0069       90.00
        21        -0.0026      0.0153      0.0060      0.0062       90.00
        22        -0.0871     -0.0643      0.0114     -0.0467       90.00
        23         0.0132      0.0811     -0.0202      0.0247       90.00
        24         0.0477     -0.0098      0.0027      0.0135       90.00
        25         0.2236     -0.0163      0.0172      0.0748       90.00
        26         0.1444     -0.1626     -0.0426     -0.0203       90.00
        27        -0.2894      0.2157      0.0249     -0.0163       90.00
        28         0.0262      0.0094      0.0228      0.0195       90.00
        29        -0.3243     -0.0730     -0.1517     -0.1830       90.14
        30         0.7495     -0.0809      0.1169      0.2618       88.87
        31        -0.3371     -0.4775     -0.3683     -0.3943       90.20
        32        -0.1306      0.7330      0.5777      0.3933       86.55
        33        -0.0959     -0.0023     -0.0216     -0.0399       90.00
        34        -0.2212      0.0061     -0.0170     -0.0774       90.00
        35         0.0016      0.0079     -0.0060      0.0012       90.00
        36        -0.0375      0.0009     -0.0069     -0.0145       90.00
        37         0.0800     -0.0448     -0.0214      0.0046       90.00
        38         0.0278      0.0317      0.0184      0.0260       90.00
        39         0.0948     -0.0126      0.0073      0.0298       90.00
        40         0.0080      0.0051     -0.0008      0.0041       90.00
 1/2[<0|r|b>*<b|rxdel|0> + (<0|rxdel|b>*<b|r|0>)*]
 Rotatory Strengths (R) in cgs (10**-40 erg-esu-cm/Gauss)
       state          XX          YY          ZZ     R(length)
         1        -0.1164     -0.1421      0.0093     -0.0830
         2        -0.0697      0.0056     -0.0015     -0.0219
         3        -0.0002     -0.0055      0.0007     -0.0017
         4        -0.0164      0.0003     -0.0732     -0.0298
         5         0.0309      0.0042      0.0376      0.0243
         6         0.0392     -0.0117      0.0009      0.0095
         7        -0.0507     -0.0194      0.0182     -0.0173
         8         0.0085      0.0116      0.0098      0.0099
         9        -0.0106     -0.0075      0.2384      0.0734
        10         0.0083      0.0274     -0.0098      0.0086
        11        -0.1157      0.0508     -0.0070     -0.0240
        12         0.0475     -0.0435      0.0171      0.0070
        13        -0.0005     -0.2322     -0.0171     -0.0833
        14         0.0009      0.2865      0.0012      0.0962
        15        -0.0019      0.0232      0.0129      0.0114
        16         0.0142      0.0022     -0.0008      0.0052
        17        -0.0356      0.0032     -0.0009     -0.0111
        18         0.6231     -0.0763     -1.1291     -0.1941
        19        -0.5925      0.0847      1.1019      0.1980
        20         0.0046      0.0036      0.0120      0.0068
        21         0.0217      0.0019     -0.0014      0.0074
        22        -0.0157      0.0281     -0.1608     -0.0494
        23        -0.0029     -0.0248      0.1017      0.0247
        24        -0.0121      0.0544      0.0001      0.0141
        25         0.0207      0.0007      0.1997      0.0737
        26        -0.2296      0.0906      0.0232     -0.0386
        27         0.3262     -0.3085     -0.0053      0.0041
        28         0.0103      0.0380      0.0205      0.0229
        29        -0.2239     -0.3169     -0.0128     -0.1845
        30        -0.0371      0.8397     -0.0131      0.2631
        31        -0.8369     -0.4963      0.1353     -0.3993
        32         1.2606     -0.0459     -0.0123      0.4008
        33        -0.0072     -0.0760     -0.0522     -0.0451
        34         0.0165     -0.1254     -0.1265     -0.0785
        35        -0.0007     -0.0088      0.0080     -0.0005
        36         0.0028     -0.0316     -0.0164     -0.0150
        37        -0.0674      0.0916     -0.0055      0.0062
        38         0.0424      0.0072      0.0249      0.0248
        39         0.0072      0.0558      0.0224      0.0285
        40        -0.0047      0.0002      0.0158      0.0038
  1/2[<0|del|b>*<b|r|0> + (<0|r|b>*<b|del|0>)*] (Au)
       state          X           Y           Z        Dip. S.   Osc.(frdel)
         1        -2.0212     -0.0427     -0.0000      2.0638      1.3759
         2        -0.0000     -0.0000     -0.0019      0.0019      0.0013
         3        -0.0000     -0.0000     -0.0010      0.0010      0.0007
         4        -0.0000     -0.0000     -0.0046      0.0046      0.0031
         5        -0.0196     -0.0008     -0.0000      0.0204      0.0136
         6        -0.0121     -0.0073     -0.0000      0.0194      0.0129
         7        -0.0000     -0.0000     -0.0004      0.0004      0.0003
         8        -0.0000     -0.0000     -0.0004      0.0004      0.0002
         9        -0.0083     -0.0037     -0.0000      0.0120      0.0080
        10        -0.0000     -0.0000     -0.0003      0.0003      0.0002
        11        -0.0000     -0.0000     -0.0002      0.0002      0.0002
        12        -0.0157     -0.0001     -0.0000      0.0158      0.0106
        13        -0.0000     -0.0000     -0.0000      0.0000      0.0000
        14        -0.0000     -0.0058     -0.0000      0.0058      0.0039
        15        -0.0000     -0.0000     -0.0004      0.0004      0.0003
        16        -0.0000     -0.0000     -0.0001      0.0001      0.0001
        17        -0.0000     -0.0000     -0.0000      0.0000      0.0000
        18        -0.0000     -0.0000     -0.0147      0.0147      0.0098
        19        -0.0027     -0.0001     -0.0000      0.0028      0.0019
        20        -0.0000     -0.0000     -0.0008      0.0008      0.0005
        21        -0.0000     -0.0000     -0.0000      0.0000      0.0000
        22        -0.0015     -0.0008     -0.0000      0.0024      0.0016
        23        -0.0000     -0.0000     -0.0146      0.0146      0.0097
        24        -0.0000     -0.0000     -0.0000      0.0000      0.0000
        25        -0.0037     -0.0000     -0.0000      0.0037      0.0025
        26        -0.0000     -0.0000     -0.0004      0.0005      0.0003
        27        -0.0132     -0.0028     -0.0000      0.0160      0.0107
        28        -0.0000     -0.0000     -0.0012      0.0012      0.0008
        29        -0.0847     -0.0519     -0.0000      0.1365      0.0910
        30        -0.0000     -0.0000     -0.0014      0.0014      0.0009
        31        -0.0639     -0.1685     -0.0000      0.2324      0.1549
        32        -0.0000     -0.0000     -0.0001      0.0001      0.0001
        33        -0.0000     -0.0000     -0.0114      0.0114      0.0076
        34        -0.0000     -0.0000     -0.0097      0.0097      0.0065
        35        -0.0000     -0.0000     -0.0004      0.0004      0.0002
        36        -0.0000     -0.0000     -0.0037      0.0037      0.0024
        37        -0.0000     -0.0000     -0.0040      0.0040      0.0027
        38        -0.0034     -0.0002     -0.0000      0.0036      0.0024
        39        -0.0000     -0.0000     -0.0157      0.0157      0.0105
        40        -0.0000     -0.0000     -0.0010      0.0010      0.0007

 Excitation energies and oscillator strengths:
 
 Excited State   1:      Singlet-A      4.1846 eV  296.29 nm  f=1.3803  <S**2>=0.000
      38 -> 39         0.70618
 This state for optimization and/or second-order correction.
 Total Energy, E(TD-HF/TD-DFT) =  -390.644139492    
 Copying the excited state density for this state as the 1-particle RhoCI density.
 
 Excited State   2:      Singlet-A      4.8875 eV  253.68 nm  f=0.0015  <S**2>=0.000
      38 -> 40         0.69575
 
 Excited State   3:      Singlet-A      5.2222 eV  237.42 nm  f=0.0007  <S**2>=0.000
      38 -> 41         0.69578
 
 Excited State   4:      Singlet-A      5.3458 eV  231.93 nm  f=0.0031  <S**2>=0.000
      38 -> 42         0.69474
 
 Excited State   5:      Singlet-A      5.3914 eV  229.97 nm  f=0.0139  <S**2>=0.000
      37 -> 39         0.52906
      38 -> 43         0.46160
 
 Excited State   6:      Singlet-A      5.7402 eV  215.99 nm  f=0.0137  <S**2>=0.000
      38 -> 45         0.68751
 
 Excited State   7:      Singlet-A      5.7507 eV  215.60 nm  f=0.0003  <S**2>=0.000
      38 -> 44         0.69332
 
 Excited State   8:      Singlet-A      5.9152 eV  209.60 nm  f=0.0003  <S**2>=0.000
      38 -> 46         0.68977
 
 Excited State   9:      Singlet-A      5.9868 eV  207.10 nm  f=0.0084  <S**2>=0.000
      37 -> 39        -0.40404
      38 -> 43         0.49245
      38 -> 49         0.18098
      38 -> 50         0.16607
 
 Excited State  10:      Singlet-A      6.1140 eV  202.79 nm  f=0.0001  <S**2>=0.000
      38 -> 47         0.43004
      38 -> 48         0.54796
 
 Excited State  11:      Singlet-A      6.1878 eV  200.37 nm  f=0.0001  <S**2>=0.000
      38 -> 46         0.12101
      38 -> 47         0.53837
      38 -> 48        -0.42216
 
 Excited State  12:      Singlet-A      6.1947 eV  200.15 nm  f=0.0108  <S**2>=0.000
      38 -> 43        -0.10489
      38 -> 49         0.65766
      38 -> 50        -0.15939
 
 Excited State  13:      Singlet-A      6.4208 eV  193.10 nm  f=0.0000  <S**2>=0.000
      38 -> 51         0.69391
 
 Excited State  14:      Singlet-A      6.4308 eV  192.80 nm  f=0.0037  <S**2>=0.000
      37 -> 39         0.14333
      38 -> 43        -0.11717
      38 -> 49         0.11023
      38 -> 50         0.65946
 
 Excited State  15:      Singlet-A      6.5884 eV  188.18 nm  f=0.0003  <S**2>=0.000
      37 -> 40         0.11845
      38 -> 52         0.67566
 
 Excited State  16:      Singlet-A      6.6235 eV  187.19 nm  f=0.0001  <S**2>=0.000
      35 -> 39         0.69836
 
 Excited State  17:      Singlet-A      6.7384 eV  184.00 nm  f=0.0000  <S**2>=0.000
      37 -> 40         0.67471
      38 -> 52        -0.13110
 
 Excited State  18:      Singlet-A      7.0037 eV  177.03 nm  f=0.0097  <S**2>=0.000
      34 -> 39        -0.13615
      37 -> 41         0.30443
      38 -> 53         0.59512
 
 Excited State  19:      Singlet-A      7.0043 eV  177.01 nm  f=0.0019  <S**2>=0.000
      36 -> 39         0.55245
      38 -> 49         0.10683
      38 -> 54         0.32780
      38 -> 57        -0.23347
 
 Excited State  20:      Singlet-A      7.0115 eV  176.83 nm  f=0.0005  <S**2>=0.000
      34 -> 39         0.68058
      38 -> 53         0.10837
 
 Excited State  21:      Singlet-A      7.0939 eV  174.78 nm  f=0.0000  <S**2>=0.000
      37 -> 41         0.58461
      37 -> 42         0.14519
      38 -> 53        -0.28160
      38 -> 55         0.19860
 
 Excited State  22:      Singlet-A      7.1131 eV  174.31 nm  f=0.0016  <S**2>=0.000
      36 -> 39        -0.26536
      38 -> 54         0.56713
      38 -> 56         0.22052
      38 -> 57         0.18353
 
 Excited State  23:      Singlet-A      7.1481 eV  173.45 nm  f=0.0099  <S**2>=0.000
      37 -> 41        -0.18549
      37 -> 42         0.40934
      38 -> 53         0.19665
      38 -> 55         0.49334
 
 Excited State  24:      Singlet-A      7.2101 eV  171.96 nm  f=0.0000  <S**2>=0.000
      37 -> 42         0.53852
      38 -> 55        -0.44156
 
 Excited State  25:      Singlet-A      7.2764 eV  170.39 nm  f=0.0028  <S**2>=0.000
      38 -> 54        -0.19596
      38 -> 56         0.65645
 
 Excited State  26:      Singlet-A      7.4162 eV  167.18 nm  f=0.0003  <S**2>=0.000
      32 -> 39         0.21698
      33 -> 39         0.65163
 
 Excited State  27:      Singlet-A      7.4298 eV  166.88 nm  f=0.0104  <S**2>=0.000
      36 -> 39         0.25116
      37 -> 43         0.28020
      38 -> 57         0.58376
 
 Excited State  28:      Singlet-A      7.5324 eV  164.60 nm  f=0.0010  <S**2>=0.000
      37 -> 44         0.16204
      38 -> 58         0.66593
 
 Excited State  29:      Singlet-A      7.5762 eV  163.65 nm  f=0.0923  <S**2>=0.000
      37 -> 43         0.43530
      37 -> 45         0.50908
      38 -> 57        -0.17244
 
 Excited State  30:      Singlet-A      7.5844 eV  163.47 nm  f=0.0009  <S**2>=0.000
      37 -> 44         0.65338
      38 -> 58        -0.17784
 
 Excited State  31:      Singlet-A      7.6197 eV  162.71 nm  f=0.1562  <S**2>=0.000
      36 -> 39         0.12567
      37 -> 43        -0.45858
      37 -> 45         0.46507
      38 -> 57         0.14972
 
 Excited State  32:      Singlet-A      7.6376 eV  162.33 nm  f=0.0001  <S**2>=0.000
      30 -> 39        -0.21555
      32 -> 39         0.59780
      33 -> 39        -0.23035
      38 -> 59        -0.10158
 
 Excited State  33:      Singlet-A      7.7009 eV  161.00 nm  f=0.0069  <S**2>=0.000
      32 -> 39         0.10325
      38 -> 59         0.67260
 
 Excited State  34:      Singlet-A      7.7461 eV  160.06 nm  f=0.0065  <S**2>=0.000
      37 -> 46         0.68037
 
 Excited State  35:      Singlet-A      7.8577 eV  157.79 nm  f=0.0002  <S**2>=0.000
      38 -> 60         0.68163
 
 Excited State  36:      Singlet-A      7.9249 eV  156.45 nm  f=0.0024  <S**2>=0.000
      31 -> 39         0.66517
      32 -> 39        -0.12895
 
 Excited State  37:      Singlet-A      7.9557 eV  155.84 nm  f=0.0026  <S**2>=0.000
      37 -> 47         0.40313
      37 -> 48         0.55091
 
 Excited State  38:      Singlet-A      7.9661 eV  155.64 nm  f=0.0022  <S**2>=0.000
      37 -> 49        -0.15459
      38 -> 61         0.67327
 
 Excited State  39:      Singlet-A      8.0352 eV  154.30 nm  f=0.0103  <S**2>=0.000
      30 -> 39        -0.34875
      32 -> 39        -0.13368
      36 -> 40         0.10045
      37 -> 46         0.10016
      37 -> 47         0.45458
      37 -> 48        -0.33000
 
 Excited State  40:      Singlet-A      8.0475 eV  154.07 nm  f=0.0006  <S**2>=0.000
      30 -> 39         0.55128
      31 -> 39         0.10853
      32 -> 39         0.17236
      37 -> 47         0.27696
      37 -> 48        -0.23633
 SavETr:  write IOETrn=   770 NScale= 10 NData=  16 NLR=1 NState=   40 LETran=     730.

 **********************************************************************

            Population analysis using the SCF Density.

 **********************************************************************

 Orbital symmetries:
       Occupied  (A) (A) (A) (A) (A) (A) (A) (A) (A) (A) (A) (A)
                 (A) (A) (A) (A) (A) (A) (A) (A) (A) (A) (A) (A)
                 (A) (A) (A) (A) (A) (A) (A) (A) (A) (A) (A) (A)
                 (A) (A)
       Virtual   (A) (A) (A) (A) (A) (A) (A) (A) (A) (A) (A) (A)
                 (A) (A) (A) (A) (A) (A) (A) (A) (A) (A) (A) (A)
                 (A) (A) (A) (A) (A) (A) (A) (A) (A) (A) (A) (A)
                 (A) (A) (A) (A) (A) (A) (A) (A) (A) (A) (A) (A)
                 (A) (A) (A) (A) (A) (A) (A) (A) (A) (A) (A) (A)
                 (A) (A) (A) (A) (A) (A) (A) (A) (A) (A) (A) (A)
                 (A) (A) (A) (A) (A) (A) (A) (A) (A) (A) (A) (A)
                 (A) (A) (A) (A) (A) (A) (A) (A) (A) (A) (A) (A)
                 (A) (A) (A) (A) (A) (A) (A) (A) (A) (A) (A) (A)
                 (A) (A) (A) (A) (A) (A) (A) (A) (A) (A) (A) (A)
                 (A) (A) (A) (A) (A) (A) (A) (A) (A) (A) (A) (A)
                 (A) (A) (A) (A) (A) (A) (A) (A) (A) (A) (A) (A)
                 (A) (A) (A) (A) (A) (A) (A) (A) (A) (A) (A) (A)
                 (A) (A) (A) (A) (A) (A) (A) (A) (A) (A) (A) (A)
                 (A) (A) (A) (A) (A) (A) (A) (A) (A) (A) (A) (A)
                 (A) (A) (A) (A) (A) (A) (A) (A) (A) (A) (A) (A)
                 (A) (A) (A) (A) (A) (A) (A) (A) (A) (A) (A) (A)
                 (A) (A) (A) (A) (A) (A) (A) (A) (A) (A) (A) (A)
                 (A) (A) (A) (A) (A) (A) (A) (A) (A) (A) (A) (A)
                 (A) (A) (A) (A) (A) (A) (A) (A) (A) (A) (A) (A)
                 (A) (A) (A) (A) (A) (A) (A) (A) (A) (A) (A) (A)
                 (A) (A) (A) (A) (A) (A) (A) (A) (A) (A) (A) (A)
                 (A) (A) (A) (A) (A) (A) (A) (A) (A) (A) (A) (A)
                 (A) (A) (A) (A) (A) (A) (A) (A) (A) (A) (A) (A)
                 (A) (A) (A) (A) (A) (A) (A) (A) (A) (A) (A) (A)
                 (A) (A) (A) (A) (A) (A) (A) (A) (A) (A) (A) (A)
                 (A) (A) (A) (A) (A) (A) (A) (A) (A) (A) (A) (A)
                 (A) (A)
 The electronic state is 1-A.
 Alpha  occ. eigenvalues --  -10.17877 -10.17588 -10.16695 -10.16598 -10.16522
 Alpha  occ. eigenvalues --  -10.16004 -10.15824 -10.15713 -10.15647 -10.15581
 Alpha  occ. eigenvalues --   -0.82773  -0.80839  -0.76041  -0.71895  -0.68731
 Alpha  occ. eigenvalues --   -0.67995  -0.65040  -0.56985  -0.52698  -0.50857
 Alpha  occ. eigenvalues --   -0.47605  -0.45655  -0.43751  -0.42722  -0.41748
 Alpha  occ. eigenvalues --   -0.41207  -0.39763  -0.38009  -0.37879  -0.37222
 Alpha  occ. eigenvalues --   -0.36888  -0.36119  -0.35441  -0.33735  -0.32531
 Alpha  occ. eigenvalues --   -0.32217  -0.26517  -0.19825
 Alpha virt. eigenvalues --   -0.04071   0.00824   0.01737   0.02497   0.03235
 Alpha virt. eigenvalues --    0.03586   0.04089   0.04191   0.05194   0.05454
 Alpha virt. eigenvalues --    0.05678   0.05956   0.06029   0.06901   0.08422
 Alpha virt. eigenvalues --    0.08456   0.08885   0.09144   0.09779   0.10479
 Alpha virt. eigenvalues --    0.11095   0.11481   0.11817   0.12507   0.13337
 Alpha virt. eigenvalues --    0.13967   0.14421   0.14759   0.15296   0.15593
 Alpha virt. eigenvalues --    0.16580   0.17503   0.17718   0.17860   0.18418
 Alpha virt. eigenvalues --    0.19149   0.19789   0.20157   0.20446   0.21026
 Alpha virt. eigenvalues --    0.21950   0.22448   0.22721   0.23106   0.23212
 Alpha virt. eigenvalues --    0.23474   0.23924   0.24237   0.24691   0.25970
 Alpha virt. eigenvalues --    0.26523   0.27265   0.27361   0.27533   0.28558
 Alpha virt. eigenvalues --    0.29752   0.29940   0.31358   0.33039   0.34488
 Alpha virt. eigenvalues --    0.34758   0.38886   0.40546   0.41121   0.41738
 Alpha virt. eigenvalues --    0.42174   0.43605   0.44063   0.44473   0.44826
 Alpha virt. eigenvalues --    0.45192   0.47861   0.48684   0.49987   0.50574
 Alpha virt. eigenvalues --    0.51340   0.51922   0.52821   0.53807   0.53854
 Alpha virt. eigenvalues --    0.54030   0.55792   0.56121   0.56471   0.57994
 Alpha virt. eigenvalues --    0.58778   0.59031   0.59611   0.60216   0.60492
 Alpha virt. eigenvalues --    0.61157   0.61417   0.62529   0.62634   0.63550
 Alpha virt. eigenvalues --    0.63913   0.65357   0.65560   0.66294   0.67391
 Alpha virt. eigenvalues --    0.68388   0.68936   0.70398   0.70418   0.71170
 Alpha virt. eigenvalues --    0.71290   0.73158   0.74329   0.74769   0.75577
 Alpha virt. eigenvalues --    0.76376   0.77122   0.77181   0.79111   0.79346
 Alpha virt. eigenvalues --    0.80135   0.81391   0.82511   0.84615   0.85298
 Alpha virt. eigenvalues --    0.86047   0.88966   0.89351   0.91214   0.92718
 Alpha virt. eigenvalues --    0.94460   0.94952   0.95593   0.96508   1.00126
 Alpha virt. eigenvalues --    1.01982   1.04212   1.04806   1.06170   1.07275
 Alpha virt. eigenvalues --    1.08376   1.09322   1.09975   1.11184   1.13267
 Alpha virt. eigenvalues --    1.14894   1.15530   1.16844   1.17288   1.19728
 Alpha virt. eigenvalues --    1.20846   1.24344   1.25498   1.27123   1.27861
 Alpha virt. eigenvalues --    1.30036   1.31823   1.32316   1.33418   1.34941
 Alpha virt. eigenvalues --    1.35135   1.36336   1.37519   1.38966   1.39998
 Alpha virt. eigenvalues --    1.45990   1.46780   1.47507   1.48266   1.48572
 Alpha virt. eigenvalues --    1.51861   1.52413   1.55971   1.59190   1.61505
 Alpha virt. eigenvalues --    1.64929   1.66246   1.69602   1.69815   1.71024
 Alpha virt. eigenvalues --    1.72694   1.72970   1.78166   1.79786   1.80943
 Alpha virt. eigenvalues --    1.82703   1.83426   1.86242   1.88764   1.92355
 Alpha virt. eigenvalues --    1.93197   1.96920   1.96970   1.97590   2.02312
 Alpha virt. eigenvalues --    2.03900   2.06127   2.16815   2.17243   2.17875
 Alpha virt. eigenvalues --    2.19459   2.21154   2.22526   2.23374   2.25732
 Alpha virt. eigenvalues --    2.26648   2.28981   2.30650   2.32086   2.34338
 Alpha virt. eigenvalues --    2.34453   2.35599   2.35758   2.36287   2.38263
 Alpha virt. eigenvalues --    2.39585   2.41080   2.44276   2.45432   2.46331
 Alpha virt. eigenvalues --    2.51799   2.55352   2.59383   2.63609   2.64195
 Alpha virt. eigenvalues --    2.66708   2.67037   2.67579   2.69362   2.71749
 Alpha virt. eigenvalues --    2.72670   2.73845   2.76685   2.77845   2.78988
 Alpha virt. eigenvalues --    2.79161   2.82224   2.83512   2.85458   2.88108
 Alpha virt. eigenvalues --    2.89128   2.93090   2.93871   2.97073   2.99293
 Alpha virt. eigenvalues --    3.00266   3.02191   3.08813   3.09865   3.12957
 Alpha virt. eigenvalues --    3.15120   3.17360   3.17447   3.18309   3.19163
 Alpha virt. eigenvalues --    3.19871   3.21497   3.23995   3.25145   3.28836
 Alpha virt. eigenvalues --    3.30797   3.31368   3.32318   3.32927   3.33916
 Alpha virt. eigenvalues --    3.36285   3.38119   3.40494   3.41219   3.43666
 Alpha virt. eigenvalues --    3.44142   3.46634   3.47354   3.49090   3.50676
 Alpha virt. eigenvalues --    3.51996   3.52891   3.54083   3.55042   3.56600
 Alpha virt. eigenvalues --    3.59529   3.60269   3.61491   3.62969   3.65411
 Alpha virt. eigenvalues --    3.65597   3.66643   3.67065   3.68808   3.71108
 Alpha virt. eigenvalues --    3.74325   3.77291   3.77949   3.79228   3.79402
 Alpha virt. eigenvalues --    3.83951   3.86757   3.88459   3.91707   3.97994
 Alpha virt. eigenvalues --    4.02176   4.04077   4.11204   4.13746   4.18094
 Alpha virt. eigenvalues --    4.19007   4.20287   4.21175   4.23022   4.24724
 Alpha virt. eigenvalues --    4.26703   4.28667   4.36882   4.37988   4.47827
 Alpha virt. eigenvalues --    4.52989   4.58647   4.61846   4.79606   4.92320
 Alpha virt. eigenvalues --    5.17848  23.79259  23.80262  23.89147  23.97324
 Alpha virt. eigenvalues --   23.99816  24.06444  24.11295  24.13379  24.21576
 Alpha virt. eigenvalues --   24.26605
          Condensed to atoms (all electrons):
               1          2          3          4          5          6
     1  C    5.519060   0.241116   0.052327  -0.070589  -0.114457  -0.029737
     2  C    0.241116   5.021516   0.621550  -0.195227  -0.016546  -0.013076
     3  C    0.052327   0.621550   5.642307   0.427850  -0.366996  -0.257188
     4  C   -0.070589  -0.195227   0.427850   5.216179   0.739817  -0.294398
     5  C   -0.114457  -0.016546  -0.366996   0.739817   5.423089   0.414803
     6  C   -0.029737  -0.013076  -0.257188  -0.294398   0.414803   4.994848
     7  C   -0.005885  -0.017108  -0.128101  -0.071728  -0.205724   0.664188
     8  C   -0.000583   0.002256  -0.024255  -0.110510  -0.125291  -0.007173
     9  C   -0.134215   0.308918  -0.104741  -0.086857  -0.008911   0.017609
    10  C    0.000716   0.010681  -0.095443  -0.153030  -0.147343   0.335988
    11  H    0.378963  -0.015818  -0.004767   0.003262   0.001862   0.000169
    12  H    0.378959  -0.015863  -0.004734   0.003234   0.001846   0.000168
    13  H    0.443557  -0.105307   0.019181   0.011124  -0.001164  -0.000339
    14  H   -0.008398  -0.061105   0.408115  -0.031931  -0.003760  -0.001658
    15  H    0.004456   0.009997   0.006790   0.418488  -0.067468  -0.044627
    16  H    0.001464  -0.002310  -0.004996  -0.031054   0.405045  -0.065103
    17  H   -0.000017  -0.000750  -0.003442   0.005261  -0.006928  -0.079359
    18  H    0.000000  -0.000014   0.000479   0.001777   0.013780   0.007146
    19  H    0.000000  -0.000016  -0.000177   0.001155  -0.002086  -0.016323
    20  H    0.000000  -0.000015  -0.000172   0.001173  -0.001970  -0.016001
    21  H   -0.009943  -0.049743  -0.058861   0.019262   0.031415   0.006100
    22  H    0.002049  -0.037635   0.013581  -0.004449  -0.004489  -0.000794
    23  H    0.002061  -0.037669   0.013590  -0.004417  -0.004485  -0.000790
    24  H    0.000040   0.000466   0.006168   0.005100  -0.007351  -0.048866
    25  H    0.000003  -0.000163   0.002320   0.018871   0.033766  -0.031090
    26  H    0.000040   0.000478   0.006243   0.005176  -0.007273  -0.048870
               7          8          9         10         11         12
     1  C   -0.005885  -0.000583  -0.134215   0.000716   0.378963   0.378959
     2  C   -0.017108   0.002256   0.308918   0.010681  -0.015818  -0.015863
     3  C   -0.128101  -0.024255  -0.104741  -0.095443  -0.004767  -0.004734
     4  C   -0.071728  -0.110510  -0.086857  -0.153030   0.003262   0.003234
     5  C   -0.205724  -0.125291  -0.008911  -0.147343   0.001862   0.001846
     6  C    0.664188  -0.007173   0.017609   0.335988   0.000169   0.000168
     7  C    5.333256   0.204835   0.004574   0.034857   0.000017   0.000017
     8  C    0.204835   5.530428   0.000298   0.070066   0.000001   0.000001
     9  C    0.004574   0.000298   5.510879  -0.006213  -0.006237  -0.006177
    10  C    0.034857   0.070066  -0.006213   5.562127  -0.000008  -0.000008
    11  H    0.000017   0.000001  -0.006237  -0.000008   0.565184  -0.038773
    12  H    0.000017   0.000001  -0.006177  -0.000008  -0.038773   0.565207
    13  H   -0.000011  -0.000003   0.003455   0.000010  -0.026039  -0.026041
    14  H    0.003805   0.000040   0.006913  -0.000319   0.000277   0.000277
    15  H   -0.004153  -0.000512  -0.006794  -0.003983   0.000006   0.000006
    16  H    0.006220   0.001248  -0.000642   0.003412   0.000002   0.000002
    17  H    0.445830  -0.044896   0.000001  -0.001292   0.000000   0.000000
    18  H   -0.051806   0.400399   0.000001  -0.007087   0.000000   0.000000
    19  H   -0.018654   0.400760   0.000001  -0.002517   0.000000  -0.000000
    20  H   -0.018802   0.400504   0.000001  -0.002534  -0.000000   0.000000
    21  H    0.000600   0.000103   0.431741   0.000935   0.000015   0.000015
    22  H   -0.000108  -0.000004   0.390693   0.000021  -0.001406   0.004529
    23  H   -0.000107  -0.000004   0.390676   0.000021   0.004531  -0.001409
    24  H   -0.001171   0.002819   0.000377   0.403967   0.000000  -0.000000
    25  H   -0.027804  -0.035125  -0.000048   0.407849   0.000000   0.000000
    26  H   -0.001311   0.002805   0.000375   0.403866  -0.000000   0.000000
              13         14         15         16         17         18
     1  C    0.443557  -0.008398   0.004456   0.001464  -0.000017   0.000000
     2  C   -0.105307  -0.061105   0.009997  -0.002310  -0.000750  -0.000014
     3  C    0.019181   0.408115   0.006790  -0.004996  -0.003442   0.000479
     4  C    0.011124  -0.031931   0.418488  -0.031054   0.005261   0.001777
     5  C   -0.001164  -0.003760  -0.067468   0.405045  -0.006928   0.013780
     6  C   -0.000339  -0.001658  -0.044627  -0.065103  -0.079359   0.007146
     7  C   -0.000011   0.003805  -0.004153   0.006220   0.445830  -0.051806
     8  C   -0.000003   0.000040  -0.000512   0.001248  -0.044896   0.400399
     9  C    0.003455   0.006913  -0.006794  -0.000642   0.000001   0.000001
    10  C    0.000010  -0.000319  -0.003983   0.003412  -0.001292  -0.007087
    11  H   -0.026039   0.000277   0.000006   0.000002   0.000000   0.000000
    12  H   -0.026041   0.000277   0.000006   0.000002   0.000000   0.000000
    13  H    0.545899   0.005943   0.000039  -0.000009   0.000000   0.000000
    14  H    0.005943   0.569489   0.006115   0.007911  -0.000001  -0.000000
    15  H    0.000039   0.006115   0.561097   0.007480   0.000075  -0.000001
    16  H   -0.000009   0.007911   0.007480   0.561391   0.007462   0.000043
    17  H    0.000000  -0.000001   0.000075   0.007462   0.569107   0.006368
    18  H    0.000000  -0.000000  -0.000001   0.000043   0.006368   0.548443
    19  H   -0.000000   0.000000   0.000000  -0.000036  -0.002850  -0.027086
    20  H   -0.000000   0.000000   0.000000  -0.000036  -0.002875  -0.027082
    21  H   -0.000357  -0.000162   0.002951  -0.000012  -0.000000   0.000000
    22  H    0.000033  -0.000234   0.000044   0.000002   0.000000  -0.000000
    23  H    0.000034  -0.000234   0.000044   0.000002   0.000000  -0.000000
    24  H    0.000000  -0.000014  -0.000424  -0.000078  -0.000303  -0.000043
    25  H    0.000000   0.000003   0.000082  -0.000258   0.000223   0.005640
    26  H    0.000000  -0.000014  -0.000427  -0.000078  -0.000303  -0.000041
              19         20         21         22         23         24
     1  C    0.000000   0.000000  -0.009943   0.002049   0.002061   0.000040
     2  C   -0.000016  -0.000015  -0.049743  -0.037635  -0.037669   0.000466
     3  C   -0.000177  -0.000172  -0.058861   0.013581   0.013590   0.006168
     4  C    0.001155   0.001173   0.019262  -0.004449  -0.004417   0.005100
     5  C   -0.002086  -0.001970   0.031415  -0.004489  -0.004485  -0.007351
     6  C   -0.016323  -0.016001   0.006100  -0.000794  -0.000790  -0.048866
     7  C   -0.018654  -0.018802   0.000600  -0.000108  -0.000107  -0.001171
     8  C    0.400760   0.400504   0.000103  -0.000004  -0.000004   0.002819
     9  C    0.000001   0.000001   0.431741   0.390693   0.390676   0.000377
    10  C   -0.002517  -0.002534   0.000935   0.000021   0.000021   0.403967
    11  H    0.000000  -0.000000   0.000015  -0.001406   0.004531   0.000000
    12  H   -0.000000   0.000000   0.000015   0.004529  -0.001409  -0.000000
    13  H   -0.000000  -0.000000  -0.000357   0.000033   0.000034   0.000000
    14  H    0.000000   0.000000  -0.000162  -0.000234  -0.000234  -0.000014
    15  H    0.000000   0.000000   0.002951   0.000044   0.000044  -0.000424
    16  H   -0.000036  -0.000036  -0.000012   0.000002   0.000002  -0.000078
    17  H   -0.002850  -0.002875  -0.000000   0.000000   0.000000  -0.000303
    18  H   -0.027086  -0.027082   0.000000  -0.000000  -0.000000  -0.000043
    19  H    0.560308  -0.036012   0.000000  -0.000000   0.000000   0.000303
    20  H   -0.036012   0.560339   0.000000   0.000000  -0.000000  -0.000175
    21  H    0.000000   0.000000   0.546575  -0.025898  -0.025898  -0.000023
    22  H   -0.000000   0.000000  -0.025898   0.559863  -0.036951  -0.000005
    23  H    0.000000  -0.000000  -0.025898  -0.036951   0.559895   0.000009
    24  H    0.000303  -0.000175  -0.000023  -0.000005   0.000009   0.555660
    25  H    0.000100   0.000100  -0.000001   0.000000   0.000000  -0.024458
    26  H   -0.000176   0.000302  -0.000023   0.000009  -0.000005  -0.038374
              25         26
     1  C    0.000003   0.000040
     2  C   -0.000163   0.000478
     3  C    0.002320   0.006243
     4  C    0.018871   0.005176
     5  C    0.033766  -0.007273
     6  C   -0.031090  -0.048870
     7  C   -0.027804  -0.001311
     8  C   -0.035125   0.002805
     9  C   -0.000048   0.000375
    10  C    0.407849   0.403866
    11  H    0.000000  -0.000000
    12  H    0.000000   0.000000
    13  H    0.000000   0.000000
    14  H    0.000003  -0.000014
    15  H    0.000082  -0.000427
    16  H   -0.000258  -0.000078
    17  H    0.000223  -0.000303
    18  H    0.005640  -0.000041
    19  H    0.000100  -0.000176
    20  H    0.000100   0.000302
    21  H   -0.000001  -0.000023
    22  H    0.000000   0.000009
    23  H    0.000000  -0.000005
    24  H   -0.024458  -0.038374
    25  H    0.542144  -0.024459
    26  H   -0.024459   0.555706
 Mulliken charges:
               1
     1  C   -0.650987
     2  C    0.351387
     3  C   -0.166630
     4  C    0.176459
     5  C    0.026820
     6  C    0.514376
     7  C   -0.145726
     8  C   -0.668206
     9  C   -0.705674
    10  C   -0.814738
    11  H    0.138760
    12  H    0.138744
    13  H    0.129995
    14  H    0.098941
    15  H    0.110718
    16  H    0.102927
    17  H    0.108688
    18  H    0.129084
    19  H    0.143304
    20  H    0.143256
    21  H    0.131212
    22  H    0.141148
    23  H    0.141105
    24  H    0.146376
    25  H    0.132307
    26  H    0.146355
 Sum of Mulliken charges =  -0.00000
 Mulliken charges with hydrogens summed into heavy atoms:
               1
     1  C   -0.243487
     2  C    0.351387
     3  C   -0.067689
     4  C    0.287177
     5  C    0.129747
     6  C    0.514376
     7  C   -0.037038
     8  C   -0.252562
     9  C   -0.292210
    10  C   -0.389700
 Electronic spatial extent (au):  <R**2>=           2880.8405
 Charge=             -0.0000 electrons
 Dipole moment (field-independent basis, Debye):
    X=              0.1244    Y=              0.6014    Z=              0.0002  Tot=              0.6142
 Quadrupole moment (field-independent basis, Debye-Ang):
   XX=            -53.2936   YY=            -60.0198   ZZ=            -68.1095
   XY=              0.9700   XZ=              0.0012   YZ=              0.0002
 Traceless Quadrupole moment (field-independent basis, Debye-Ang):
   XX=              7.1807   YY=              0.4545   ZZ=             -7.6352
   XY=              0.9700   XZ=              0.0012   YZ=              0.0002
 Octapole moment (field-independent basis, Debye-Ang**2):
  XXX=             -1.2213  YYY=             -3.3162  ZZZ=              0.0013  XYY=             -2.3551
  XXY=              1.0186  XXZ=              0.0039  XZZ=              2.2687  YZZ=              3.1264
  YYZ=              0.0012  XYZ=              0.0035
 Hexadecapole moment (field-independent basis, Debye-Ang**3):
 XXXX=          -3271.2839 YYYY=           -451.5532 ZZZZ=           -108.6422 XXXY=             23.6025
 XXXZ=             -0.0057 YYYX=             -1.1760 YYYZ=              0.0009 ZZZX=              0.0221
 ZZZY=             -0.0001 XXYY=           -639.6726 XXZZ=           -599.1701 YYZZ=            -96.0721
 XXYZ=             -0.0119 YYXZ=             -0.0159 ZZXY=              5.2019
 N-N= 4.785987318692D+02 E-N=-1.862262754487D+03  KE= 3.887583732864D+02
 Unable to Open any file for archive entry.
 1\1\GINC-ZCWANG-VIRTUAL-MACHINE\SP\RB3LYP TD-FC\6-311+G(2d,p)\C10H16\Z
 CWANG\29-Oct-2023\0\\# td=(nstates=40) b3lyp/6-311+g(2d,p) scrf(smd, s
 olvent=ethanol)\\B-1\\0,1\C,0,4.186043,-0.985243,-0.000113\C,0,2.96567
 8,-0.099955,0.000017\C,0,1.724259,-0.63647,-0.000213\C,0,0.452578,0.05
 9668,-0.000179\C,0,-0.741079,-0.579413,-0.000205\C,0,-2.064372,0.04041
 5,-0.000137\C,0,-3.152878,-0.763225,0.000253\C,0,-4.604173,-0.385851,0
 .000427\C,0,3.260391,1.378273,0.000567\C,0,-2.133175,1.550261,-0.00054
 1\H,0,4.817179,-0.791217,-0.879673\H,0,4.817098,-0.791647,0.879598\H,0
 ,3.922096,-2.047445,-0.000374\H,0,1.652379,-1.72528,-0.000493\H,0,0.46
 9127,1.146468,-0.000113\H,0,-0.735417,-1.670538,-0.000304\H,0,-2.96812
 6,-1.838635,0.00044\H,0,-4.773466,0.693748,0.001475\H,0,-5.114894,-0.8
 0271,-0.879231\H,0,-5.115042,-0.80447,0.879137\H,0,2.363003,2.000757,0
 .000075\H,0,3.859006,1.653716,0.880554\H,0,3.86032,1.65418,-0.878355\H
 ,0,-1.627265,1.964044,-0.882102\H,0,-3.158688,1.923675,-0.000452\H,0,-
 1.626926,1.964596,0.880567\\Version=ES64L-G16RevC.02\State=1-A\HF=-390
 .7979215\RMSD=2.877e-09\PG=C01 [X(C10H16)]\\@
 The archive entry for this job was punched.


 BOOKS ARE LIGHTHOUSES ERECTED IN THE GREAT SEA OF TIME.
     -- E.P.WHIPPLE
 Job cpu time:       0 days 10 hours 22 minutes 50.2 seconds.
 Elapsed time:       0 days  0 hours 52 minutes 54.9 seconds.
 File lengths (MBytes):  RWF=   1715 Int=      0 D2E=      0 Chk=    158 Scr=      1
 Normal termination of Gaussian 16 at Sun Oct 29 15:54:03 2023.
