 Entering Link 1 = D:\G09W\l1.exe PID=     31056.
  
 Copyright (c) 1988,1990,1992,1993,1995,1998,2003,2009, Gaussian, Inc.
                  All Rights Reserved.
  
 This is part of the Gaussian(R) 09 program.  It is based on
 the Gaussian(R) 03 system (copyright 2003, Gaussian, Inc.),
 the Gaussian(R) 98 system (copyright 1998, Gaussian, Inc.),
 the Gaussian(R) 94 system (copyright 1995, Gaussian, Inc.),
 the Gaussian 92(TM) system (copyright 1992, Gaussian, Inc.),
 the Gaussian 90(TM) system (copyright 1990, Gaussian, Inc.),
 the Gaussian 88(TM) system (copyright 1988, Gaussian, Inc.),
 the Gaussian 86(TM) system (copyright 1986, Carnegie Mellon
 University), and the Gaussian 82(TM) system (copyright 1983,
 Carnegie Mellon University). Gaussian is a federally registered
 trademark of Gaussian, Inc.
  
 This software contains proprietary and confidential information,
 including trade secrets, belonging to Gaussian, Inc.
  
 This software is provided under written license and may be
 used, copied, transmitted, or stored only in accord with that
 written license.
  
 The following legend is applicable only to US Government
 contracts under FAR:
  
                    RESTRICTED RIGHTS LEGEND
  
 Use, reproduction and disclosure by the US Government is
 subject to restrictions as set forth in subparagraphs (a)
 and (c) of the Commercial Computer Software - Restricted
 Rights clause in FAR 52.227-19.
  
 Gaussian, Inc.
 340 Quinnipiac St., Bldg. 40, Wallingford CT 06492
  
  
 ---------------------------------------------------------------
 Warning -- This program may not be used in any manner that
 competes with the business of Gaussian, Inc. or will provide
 assistance to any competitor of Gaussian, Inc.  The licensee
 of this program is prohibited from giving any competitor of
 Gaussian, Inc. access to this program.  By using this program,
 the user acknowledges that Gaussian, Inc. is engaged in the
 business of creating and licensing software in the field of
 computational chemistry and represents and warrants to the
 licensee that it is not a competitor of Gaussian, Inc. and that
 it will not use this program in any manner prohibited above.
 ---------------------------------------------------------------
  

 Cite this work as:
 Gaussian 09, Revision A.02,
 M. J. Frisch, G. W. Trucks, H. B. Schlegel, G. E. Scuseria, 
 M. A. Robb, J. R. Cheeseman, G. Scalmani, V. Barone, B. Mennucci, 
 G. A. Petersson, H. Nakatsuji, M. Caricato, X. Li, H. P. Hratchian, 
 A. F. Izmaylov, J. Bloino, G. Zheng, J. L. Sonnenberg, M. Hada, 
 M. Ehara, K. Toyota, R. Fukuda, J. Hasegawa, M. Ishida, T. Nakajima, 
 Y. Honda, O. Kitao, H. Nakai, T. Vreven, J. A. Montgomery, Jr., 
 J. E. Peralta, F. Ogliaro, M. Bearpark, J. J. Heyd, E. Brothers, 
 K. N. Kudin, V. N. Staroverov, R. Kobayashi, J. Normand, 
 K. Raghavachari, A. Rendell, J. C. Burant, S. S. Iyengar, J. Tomasi, 
 M. Cossi, N. Rega, J. M. Millam, M. Klene, J. E. Knox, J. B. Cross, 
 V. Bakken, C. Adamo, J. Jaramillo, R. Gomperts, R. E. Stratmann, 
 O. Yazyev, A. J. Austin, R. Cammi, C. Pomelli, J. W. Ochterski, 
 R. L. Martin, K. Morokuma, V. G. Zakrzewski, G. A. Voth, 
 P. Salvador, J. J. Dannenberg, S. Dapprich, A. D. Daniels, 
 O. Farkas, J. B. Foresman, J. V. Ortiz, J. Cioslowski, 
 and D. J. Fox, Gaussian, Inc., Wallingford CT, 2009.
 
 ******************************************
 Gaussian 09:  IA32W-G09RevA.02 11-Jun-2009
                25-Oct-2023 
 ******************************************
 %nproc=4
 Will use up to    4 processors via shared memory.
 %mem=1175MB
 -----------------------
 # opt freq b3lyp/6-31g*
 -----------------------
 1/14=-1,18=20,19=15,26=3,38=1/1,3;
 2/9=110,12=2,17=6,18=5,40=1/2;
 3/5=1,6=6,7=1,11=2,16=1,25=1,30=1,71=1,74=-5/1,2,3;
 4//1;
 5/5=2,38=5/2;
 6/7=2,8=2,9=2,10=2,28=1/1;
 7//1,2,3,16;
 1/14=-1,18=20,19=15/3(2);
 2/9=110/2;
 99//99;
 2/9=110/2;
 3/5=1,6=6,7=1,11=2,16=1,25=1,30=1,71=1,74=-5/1,2,3;
 4/5=5,16=3/1;
 5/5=2,38=5/2;
 7//1,2,3,16;
 1/14=-1,18=20,19=15/3(-5);
 2/9=110/2;
 6/7=2,8=2,9=2,10=2,19=2,28=1/1;
 99/9=1/99;
 ---
 A-3
 ---
 Symbolic Z-matrix:
 Charge =  1 Multiplicity = 1
 C                    0    -8.80196  -0.87275   0.05813 
 C                    0    -7.59489  -0.2747    0.11088 
 C                    0    -6.43962  -0.9646    0.05709 
 C                    0    -5.22716  -0.37908   0.10905 
 C                    0    -10.0173  -0.28888   0.10023 
 S                    0    -10.1882   1.17065   0.207 
 C                    0    -11.6477   1.17209   0.16796 
 C                    0    -12.1249  -0.07475   0.07399 
 N                    0    -11.1523  -0.94458   0.04375 
 C                    0    -12.4614   2.23691   0.2161 
 C                    0    -13.7878   2.03124   0.16513 
 C                    0    -14.2775   0.78421   0.06551 
 C                    0    -13.4513  -0.27438   0.01829 
 C                    0    -11.3388  -2.44997  -0.0523 
 C                    0    -11.2988  -2.90688  -1.51454 
 C                    0    -4.0772   -1.07616   0.0456 
 C                    0    -2.7883   -0.66915   0.08619 
 S                    0    -1.76426  -1.72438  -0.05327 
 C                    0    -0.59289  -0.85016  -0.01246 
 C                    0    -0.94106   0.43109   0.1663 
 N                    0    -2.20819   0.45337   0.23191 
 C                    0     0.69251  -1.21701  -0.1217 
 C                    0     1.63842  -0.26589  -0.05205 
 C                    0     1.29637   1.02109   0.1257 
 C                    0     0.00609   1.38001   0.23666 
 C                    0    -2.89646   1.73825   0.48002 
 C                    0    -3.29639   2.43514  -0.82629 
 H                    0    -8.77704  -1.97112  -0.03516 
 H                    0    -7.52689   0.82213   0.20206 
 H                    0    -6.49329  -2.06379  -0.03363 
 H                    0    -5.22144   0.71312   0.19367 
 H                    0    -12.0709   3.26604   0.29488 
 H                    0    -14.4781   2.89077   0.202 
 H                    0    -15.3687   0.62878   0.01957 
 H                    0    -13.8815  -1.28367  -0.0705 
 H                    0    -10.5726  -2.98676   0.55088 
 H                    0    -12.304   -2.75604   0.41103 
 H                    0    -10.3243  -2.65293  -1.99008 
 H                    0    -11.4399  -4.00923  -1.59452 
 H                    0    -12.105   -2.41518  -2.1057 
 H                    0    -4.25572  -2.16598  -0.06878 
 H                    0     0.98811  -2.27051  -0.26512 
 H                    0     2.70231  -0.54334  -0.14105 
 H                    0     2.08443   1.79148   0.17801 
 H                    0    -0.2343    2.44537   0.37148 
 H                    0    -3.74566   1.61086   1.18302 
 H                    0    -2.25948   2.43448   1.07135 
 H                    0    -2.39559   2.69004  -1.43034 
 H                    0    -3.94585   1.79037  -1.45937 
 H                    0    -3.84881   3.38117  -0.62319 
 

 GradGradGradGradGradGradGradGradGradGradGradGradGradGradGradGradGradGrad
 Berny optimization.
 Initialization pass.
                           ----------------------------
                           !    Initial Parameters    !
                           ! (Angstroms and Degrees)  !
 --------------------------                            --------------------------
 ! Name  Definition              Value          Derivative Info.                !
 --------------------------------------------------------------------------------
 ! R1    R(1,2)                  1.3481         estimate D2E/DX2                !
 ! R2    R(1,5)                  1.349          estimate D2E/DX2                !
 ! R3    R(1,28)                 1.1026         estimate D2E/DX2                !
 ! R4    R(2,3)                  1.3467         estimate D2E/DX2                !
 ! R5    R(2,29)                 1.1027         estimate D2E/DX2                !
 ! R6    R(3,4)                  1.3474         estimate D2E/DX2                !
 ! R7    R(3,30)                 1.1042         estimate D2E/DX2                !
 ! R8    R(4,16)                 1.3462         estimate D2E/DX2                !
 ! R9    R(4,31)                 1.0955         estimate D2E/DX2                !
 ! R10   R(5,6)                  1.4734         estimate D2E/DX2                !
 ! R11   R(5,9)                  1.312          estimate D2E/DX2                !
 ! R12   R(6,7)                  1.46           estimate D2E/DX2                !
 ! R13   R(7,8)                  1.3383         estimate D2E/DX2                !
 ! R14   R(7,10)                 1.341          estimate D2E/DX2                !
 ! R15   R(8,9)                  1.3052         estimate D2E/DX2                !
 ! R16   R(8,13)                 1.3425         estimate D2E/DX2                !
 ! R17   R(9,14)                 1.5199         estimate D2E/DX2                !
 ! R18   R(10,11)                1.3432         estimate D2E/DX2                !
 ! R19   R(10,32)                1.1035         estimate D2E/DX2                !
 ! R20   R(11,12)                1.3434         estimate D2E/DX2                !
 ! R21   R(11,33)                1.103          estimate D2E/DX2                !
 ! R22   R(12,13)                1.3437         estimate D2E/DX2                !
 ! R23   R(12,34)                1.1032         estimate D2E/DX2                !
 ! R24   R(13,35)                1.1007         estimate D2E/DX2                !
 ! R25   R(14,15)                1.5325         estimate D2E/DX2                !
 ! R26   R(14,36)                1.1131         estimate D2E/DX2                !
 ! R27   R(14,37)                1.1135         estimate D2E/DX2                !
 ! R28   R(15,38)                1.1137         estimate D2E/DX2                !
 ! R29   R(15,39)                1.1142         estimate D2E/DX2                !
 ! R30   R(15,40)                1.1141         estimate D2E/DX2                !
 ! R31   R(16,17)                1.3522         estimate D2E/DX2                !
 ! R32   R(16,41)                1.1103         estimate D2E/DX2                !
 ! R33   R(17,18)                1.477          estimate D2E/DX2                !
 ! R34   R(17,21)                1.2719         estimate D2E/DX2                !
 ! R35   R(18,19)                1.4622         estimate D2E/DX2                !
 ! R36   R(19,20)                1.3397         estimate D2E/DX2                !
 ! R37   R(19,22)                1.3412         estimate D2E/DX2                !
 ! R38   R(20,21)                1.269          estimate D2E/DX2                !
 ! R39   R(20,25)                1.3426         estimate D2E/DX2                !
 ! R40   R(21,26)                1.4786         estimate D2E/DX2                !
 ! R41   R(22,23)                1.3432         estimate D2E/DX2                !
 ! R42   R(22,42)                1.1035         estimate D2E/DX2                !
 ! R43   R(23,24)                1.3435         estimate D2E/DX2                !
 ! R44   R(23,43)                1.1031         estimate D2E/DX2                !
 ! R45   R(24,25)                1.3439         estimate D2E/DX2                !
 ! R46   R(24,44)                1.1033         estimate D2E/DX2                !
 ! R47   R(25,45)                1.1004         estimate D2E/DX2                !
 ! R48   R(26,27)                1.5336         estimate D2E/DX2                !
 ! R49   R(26,46)                1.1098         estimate D2E/DX2                !
 ! R50   R(26,47)                1.1136         estimate D2E/DX2                !
 ! R51   R(27,48)                1.1141         estimate D2E/DX2                !
 ! R52   R(27,49)                1.1128         estimate D2E/DX2                !
 ! R53   R(27,50)                1.1142         estimate D2E/DX2                !
 ! A1    A(2,1,5)              127.8386         estimate D2E/DX2                !
 ! A2    A(2,1,28)             115.1495         estimate D2E/DX2                !
 ! A3    A(5,1,28)             117.0113         estimate D2E/DX2                !
 ! A4    A(1,2,3)              122.6351         estimate D2E/DX2                !
 ! A5    A(1,2,29)             119.9798         estimate D2E/DX2                !
 ! A6    A(3,2,29)             117.3851         estimate D2E/DX2                !
 ! A7    A(2,3,4)              123.215          estimate D2E/DX2                !
 ! A8    A(2,3,30)             118.1348         estimate D2E/DX2                !
 ! A9    A(4,3,30)             118.6502         estimate D2E/DX2                !
 ! A10   A(3,4,16)             122.807          estimate D2E/DX2                !
 ! A11   A(3,4,31)             116.1623         estimate D2E/DX2                !
 ! A12   A(16,4,31)            121.0258         estimate D2E/DX2                !
 ! A13   A(1,5,6)              122.3793         estimate D2E/DX2                !
 ! A14   A(1,5,9)              124.1758         estimate D2E/DX2                !
 ! A15   A(6,5,9)              113.4438         estimate D2E/DX2                !
 ! A16   A(5,6,7)               96.6031         estimate D2E/DX2                !
 ! A17   A(6,7,8)              110.94           estimate D2E/DX2                !
 ! A18   A(6,7,10)             127.3293         estimate D2E/DX2                !
 ! A19   A(8,7,10)             121.7307         estimate D2E/DX2                !
 ! A20   A(7,8,9)              110.9041         estimate D2E/DX2                !
 ! A21   A(7,8,13)             119.586          estimate D2E/DX2                !
 ! A22   A(9,8,13)             129.5089         estimate D2E/DX2                !
 ! A23   A(5,9,8)              108.0948         estimate D2E/DX2                !
 ! A24   A(5,9,14)             127.1465         estimate D2E/DX2                !
 ! A25   A(8,9,14)             124.7569         estimate D2E/DX2                !
 ! A26   A(7,10,11)            118.4405         estimate D2E/DX2                !
 ! A27   A(7,10,32)            121.8943         estimate D2E/DX2                !
 ! A28   A(11,10,32)           119.6652         estimate D2E/DX2                !
 ! A29   A(10,11,12)           120.3242         estimate D2E/DX2                !
 ! A30   A(10,11,33)           119.8284         estimate D2E/DX2                !
 ! A31   A(12,11,33)           119.8471         estimate D2E/DX2                !
 ! A32   A(11,12,13)           120.6486         estimate D2E/DX2                !
 ! A33   A(11,12,34)           119.6316         estimate D2E/DX2                !
 ! A34   A(13,12,34)           119.7196         estimate D2E/DX2                !
 ! A35   A(8,13,12)            119.2688         estimate D2E/DX2                !
 ! A36   A(8,13,35)            121.7244         estimate D2E/DX2                !
 ! A37   A(12,13,35)           119.006          estimate D2E/DX2                !
 ! A38   A(9,14,15)            110.6338         estimate D2E/DX2                !
 ! A39   A(9,14,36)            111.0338         estimate D2E/DX2                !
 ! A40   A(9,14,37)            110.6277         estimate D2E/DX2                !
 ! A41   A(15,14,36)           110.8118         estimate D2E/DX2                !
 ! A42   A(15,14,37)           109.7363         estimate D2E/DX2                !
 ! A43   A(36,14,37)           103.805          estimate D2E/DX2                !
 ! A44   A(14,15,38)           111.2403         estimate D2E/DX2                !
 ! A45   A(14,15,39)           111.11           estimate D2E/DX2                !
 ! A46   A(14,15,40)           110.8439         estimate D2E/DX2                !
 ! A47   A(38,15,39)           107.8038         estimate D2E/DX2                !
 ! A48   A(38,15,40)           107.8178         estimate D2E/DX2                !
 ! A49   A(39,15,40)           107.8736         estimate D2E/DX2                !
 ! A50   A(4,16,17)            131.0654         estimate D2E/DX2                !
 ! A51   A(4,16,41)            112.0722         estimate D2E/DX2                !
 ! A52   A(17,16,41)           116.8595         estimate D2E/DX2                !
 ! A53   A(16,17,18)           116.2928         estimate D2E/DX2                !
 ! A54   A(16,17,21)           134.7323         estimate D2E/DX2                !
 ! A55   A(18,17,21)           108.9723         estimate D2E/DX2                !
 ! A56   A(17,18,19)            97.2173         estimate D2E/DX2                !
 ! A57   A(18,19,20)           111.5507         estimate D2E/DX2                !
 ! A58   A(18,19,22)           127.0112         estimate D2E/DX2                !
 ! A59   A(20,19,22)           121.4359         estimate D2E/DX2                !
 ! A60   A(19,20,21)           106.4507         estimate D2E/DX2                !
 ! A61   A(19,20,25)           119.9741         estimate D2E/DX2                !
 ! A62   A(21,20,25)           133.5751         estimate D2E/DX2                !
 ! A63   A(17,21,20)           115.7211         estimate D2E/DX2                !
 ! A64   A(17,21,26)           125.0181         estimate D2E/DX2                !
 ! A65   A(20,21,26)           119.2572         estimate D2E/DX2                !
 ! A66   A(19,22,23)           118.4907         estimate D2E/DX2                !
 ! A67   A(19,22,42)           121.8997         estimate D2E/DX2                !
 ! A68   A(23,22,42)           119.6096         estimate D2E/DX2                !
 ! A69   A(22,23,24)           120.3902         estimate D2E/DX2                !
 ! A70   A(22,23,43)           119.7958         estimate D2E/DX2                !
 ! A71   A(24,23,43)           119.814          estimate D2E/DX2                !
 ! A72   A(23,24,25)           120.7456         estimate D2E/DX2                !
 ! A73   A(23,24,44)           119.5587         estimate D2E/DX2                !
 ! A74   A(25,24,44)           119.6955         estimate D2E/DX2                !
 ! A75   A(20,25,24)           118.9632         estimate D2E/DX2                !
 ! A76   A(20,25,45)           122.4513         estimate D2E/DX2                !
 ! A77   A(24,25,45)           118.5822         estimate D2E/DX2                !
 ! A78   A(21,26,27)           111.9211         estimate D2E/DX2                !
 ! A79   A(21,26,46)           111.2689         estimate D2E/DX2                !
 ! A80   A(21,26,47)           111.4777         estimate D2E/DX2                !
 ! A81   A(27,26,46)           113.0906         estimate D2E/DX2                !
 ! A82   A(27,26,47)           108.5031         estimate D2E/DX2                !
 ! A83   A(46,26,47)            99.9677         estimate D2E/DX2                !
 ! A84   A(26,27,48)           110.789          estimate D2E/DX2                !
 ! A85   A(26,27,49)           111.9308         estimate D2E/DX2                !
 ! A86   A(26,27,50)           111.0907         estimate D2E/DX2                !
 ! A87   A(48,27,49)           107.2174         estimate D2E/DX2                !
 ! A88   A(48,27,50)           107.785          estimate D2E/DX2                !
 ! A89   A(49,27,50)           107.837          estimate D2E/DX2                !
 ! D1    D(5,1,2,3)           -179.8519         estimate D2E/DX2                !
 ! D2    D(5,1,2,29)             0.1708         estimate D2E/DX2                !
 ! D3    D(28,1,2,3)            -0.1496         estimate D2E/DX2                !
 ! D4    D(28,1,2,29)          179.873          estimate D2E/DX2                !
 ! D5    D(2,1,5,6)              0.4471         estimate D2E/DX2                !
 ! D6    D(2,1,5,9)           -179.9675         estimate D2E/DX2                !
 ! D7    D(28,1,5,6)          -179.2504         estimate D2E/DX2                !
 ! D8    D(28,1,5,9)             0.335          estimate D2E/DX2                !
 ! D9    D(1,2,3,4)           -179.9884         estimate D2E/DX2                !
 ! D10   D(1,2,3,30)            -0.014          estimate D2E/DX2                !
 ! D11   D(29,2,3,4)            -0.0105         estimate D2E/DX2                !
 ! D12   D(29,2,3,30)          179.9639         estimate D2E/DX2                !
 ! D13   D(2,3,4,16)          -179.5433         estimate D2E/DX2                !
 ! D14   D(2,3,4,31)            -0.3377         estimate D2E/DX2                !
 ! D15   D(30,3,4,16)            0.4824         estimate D2E/DX2                !
 ! D16   D(30,3,4,31)          179.688          estimate D2E/DX2                !
 ! D17   D(3,4,16,17)         -179.7343         estimate D2E/DX2                !
 ! D18   D(3,4,16,41)            0.9088         estimate D2E/DX2                !
 ! D19   D(31,4,16,17)           1.0977         estimate D2E/DX2                !
 ! D20   D(31,4,16,41)        -178.2591         estimate D2E/DX2                !
 ! D21   D(1,5,6,7)            178.4882         estimate D2E/DX2                !
 ! D22   D(9,5,6,7)             -1.138          estimate D2E/DX2                !
 ! D23   D(1,5,9,8)           -178.3624         estimate D2E/DX2                !
 ! D24   D(1,5,9,14)             1.1653         estimate D2E/DX2                !
 ! D25   D(6,5,9,8)              1.256          estimate D2E/DX2                !
 ! D26   D(6,5,9,14)          -179.2163         estimate D2E/DX2                !
 ! D27   D(5,6,7,8)              0.6373         estimate D2E/DX2                !
 ! D28   D(5,6,7,10)          -179.396          estimate D2E/DX2                !
 ! D29   D(6,7,8,9)              0.0149         estimate D2E/DX2                !
 ! D30   D(6,7,8,13)          -179.6503         estimate D2E/DX2                !
 ! D31   D(10,7,8,9)          -179.9539         estimate D2E/DX2                !
 ! D32   D(10,7,8,13)            0.3809         estimate D2E/DX2                !
 ! D33   D(6,7,10,11)          179.908          estimate D2E/DX2                !
 ! D34   D(6,7,10,32)           -0.0433         estimate D2E/DX2                !
 ! D35   D(8,7,10,11)           -0.1286         estimate D2E/DX2                !
 ! D36   D(8,7,10,32)          179.9201         estimate D2E/DX2                !
 ! D37   D(7,8,9,5)             -0.7724         estimate D2E/DX2                !
 ! D38   D(7,8,9,14)           179.6858         estimate D2E/DX2                !
 ! D39   D(13,8,9,5)           178.8502         estimate D2E/DX2                !
 ! D40   D(13,8,9,14)           -0.6915         estimate D2E/DX2                !
 ! D41   D(7,8,13,12)           -0.3647         estimate D2E/DX2                !
 ! D42   D(7,8,13,35)          179.3105         estimate D2E/DX2                !
 ! D43   D(9,8,13,12)         -179.9593         estimate D2E/DX2                !
 ! D44   D(9,8,13,35)           -0.2841         estimate D2E/DX2                !
 ! D45   D(5,9,14,15)          -86.5191         estimate D2E/DX2                !
 ! D46   D(5,9,14,36)           36.9546         estimate D2E/DX2                !
 ! D47   D(5,9,14,37)          151.6578         estimate D2E/DX2                !
 ! D48   D(8,9,14,15)           92.9344         estimate D2E/DX2                !
 ! D49   D(8,9,14,36)         -143.5919         estimate D2E/DX2                !
 ! D50   D(8,9,14,37)          -28.8887         estimate D2E/DX2                !
 ! D51   D(7,10,11,12)          -0.1342         estimate D2E/DX2                !
 ! D52   D(7,10,11,33)        -179.9375         estimate D2E/DX2                !
 ! D53   D(32,10,11,12)        179.8182         estimate D2E/DX2                !
 ! D54   D(32,10,11,33)          0.0149         estimate D2E/DX2                !
 ! D55   D(10,11,12,13)          0.1439         estimate D2E/DX2                !
 ! D56   D(10,11,12,34)       -179.7047         estimate D2E/DX2                !
 ! D57   D(33,11,12,13)        179.9472         estimate D2E/DX2                !
 ! D58   D(33,11,12,34)          0.0986         estimate D2E/DX2                !
 ! D59   D(11,12,13,8)           0.1082         estimate D2E/DX2                !
 ! D60   D(11,12,13,35)       -179.5759         estimate D2E/DX2                !
 ! D61   D(34,12,13,8)         179.9568         estimate D2E/DX2                !
 ! D62   D(34,12,13,35)          0.2726         estimate D2E/DX2                !
 ! D63   D(9,14,15,38)          60.1702         estimate D2E/DX2                !
 ! D64   D(9,14,15,39)        -179.7173         estimate D2E/DX2                !
 ! D65   D(9,14,15,40)         -59.7815         estimate D2E/DX2                !
 ! D66   D(36,14,15,38)        -63.4316         estimate D2E/DX2                !
 ! D67   D(36,14,15,39)         56.6809         estimate D2E/DX2                !
 ! D68   D(36,14,15,40)        176.6167         estimate D2E/DX2                !
 ! D69   D(37,14,15,38)       -177.484          estimate D2E/DX2                !
 ! D70   D(37,14,15,39)        -57.3715         estimate D2E/DX2                !
 ! D71   D(37,14,15,40)         62.5643         estimate D2E/DX2                !
 ! D72   D(4,16,17,18)        -178.1858         estimate D2E/DX2                !
 ! D73   D(4,16,17,21)           2.4722         estimate D2E/DX2                !
 ! D74   D(41,16,17,18)          1.1461         estimate D2E/DX2                !
 ! D75   D(41,16,17,21)       -178.1959         estimate D2E/DX2                !
 ! D76   D(16,17,18,19)        177.6911         estimate D2E/DX2                !
 ! D77   D(21,17,18,19)         -2.8032         estimate D2E/DX2                !
 ! D78   D(16,17,21,20)       -177.6058         estimate D2E/DX2                !
 ! D79   D(16,17,21,26)          3.0939         estimate D2E/DX2                !
 ! D80   D(18,17,21,20)          3.018          estimate D2E/DX2                !
 ! D81   D(18,17,21,26)       -176.2822         estimate D2E/DX2                !
 ! D82   D(17,18,19,20)          1.9467         estimate D2E/DX2                !
 ! D83   D(17,18,19,22)       -178.5964         estimate D2E/DX2                !
 ! D84   D(18,19,20,21)         -0.4731         estimate D2E/DX2                !
 ! D85   D(18,19,20,25)        179.6401         estimate D2E/DX2                !
 ! D86   D(22,19,20,21)       -179.9648         estimate D2E/DX2                !
 ! D87   D(22,19,20,25)          0.1483         estimate D2E/DX2                !
 ! D88   D(18,19,22,23)       -179.6044         estimate D2E/DX2                !
 ! D89   D(18,19,22,42)          0.3488         estimate D2E/DX2                !
 ! D90   D(20,19,22,23)         -0.1964         estimate D2E/DX2                !
 ! D91   D(20,19,22,42)        179.7567         estimate D2E/DX2                !
 ! D92   D(19,20,21,17)         -1.6343         estimate D2E/DX2                !
 ! D93   D(19,20,21,26)        177.7089         estimate D2E/DX2                !
 ! D94   D(25,20,21,17)        178.2305         estimate D2E/DX2                !
 ! D95   D(25,20,21,26)         -2.4264         estimate D2E/DX2                !
 ! D96   D(19,20,25,24)         -0.0255         estimate D2E/DX2                !
 ! D97   D(19,20,25,45)        179.3102         estimate D2E/DX2                !
 ! D98   D(21,20,25,24)       -179.8757         estimate D2E/DX2                !
 ! D99   D(21,20,25,45)         -0.54           estimate D2E/DX2                !
 ! D100  D(17,21,26,27)        -87.7576         estimate D2E/DX2                !
 ! D101  D(17,21,26,46)         39.8534         estimate D2E/DX2                !
 ! D102  D(17,21,26,47)        150.5098         estimate D2E/DX2                !
 ! D103  D(20,21,26,27)         92.965          estimate D2E/DX2                !
 ! D104  D(20,21,26,46)       -139.424          estimate D2E/DX2                !
 ! D105  D(20,21,26,47)        -28.7676         estimate D2E/DX2                !
 ! D106  D(19,22,23,24)          0.1246         estimate D2E/DX2                !
 ! D107  D(19,22,23,43)       -179.8929         estimate D2E/DX2                !
 ! D108  D(42,22,23,24)       -179.8296         estimate D2E/DX2                !
 ! D109  D(42,22,23,43)          0.1529         estimate D2E/DX2                !
 ! D110  D(22,23,24,25)         -0.0066         estimate D2E/DX2                !
 ! D111  D(22,23,24,44)       -179.8241         estimate D2E/DX2                !
 ! D112  D(43,23,24,25)       -179.9891         estimate D2E/DX2                !
 ! D113  D(43,23,24,44)          0.1934         estimate D2E/DX2                !
 ! D114  D(23,24,25,20)         -0.044          estimate D2E/DX2                !
 ! D115  D(23,24,25,45)       -179.4056         estimate D2E/DX2                !
 ! D116  D(44,24,25,20)        179.7732         estimate D2E/DX2                !
 ! D117  D(44,24,25,45)          0.4116         estimate D2E/DX2                !
 ! D118  D(21,26,27,48)        -62.4587         estimate D2E/DX2                !
 ! D119  D(21,26,27,49)         57.1559         estimate D2E/DX2                !
 ! D120  D(21,26,27,50)        177.7662         estimate D2E/DX2                !
 ! D121  D(46,26,27,48)        170.9115         estimate D2E/DX2                !
 ! D122  D(46,26,27,49)        -69.4739         estimate D2E/DX2                !
 ! D123  D(46,26,27,50)         51.1365         estimate D2E/DX2                !
 ! D124  D(47,26,27,48)         60.9675         estimate D2E/DX2                !
 ! D125  D(47,26,27,49)       -179.4179         estimate D2E/DX2                !
 ! D126  D(47,26,27,50)        -58.8076         estimate D2E/DX2                !
 --------------------------------------------------------------------------------
 Trust Radius=3.00D-01 FncErr=1.00D-07 GrdErr=1.00D-06
 Number of steps in this run= 278 maximum allowed number of steps= 300.
 GradGradGradGradGradGradGradGradGradGradGradGradGradGradGradGradGradGrad

                          Input orientation:                          
 ---------------------------------------------------------------------
 Center     Atomic      Atomic             Coordinates (Angstroms)
 Number     Number       Type             X           Y           Z
 ---------------------------------------------------------------------
      1          6           0       -8.801960   -0.872750    0.058127
      2          6           0       -7.594890   -0.274703    0.110880
      3          6           0       -6.439620   -0.964600    0.057087
      4          6           0       -5.227160   -0.379081    0.109048
      5          6           0      -10.017300   -0.288880    0.100231
      6         16           0      -10.188200    1.170650    0.206997
      7          6           0      -11.647700    1.172090    0.167963
      8          6           0      -12.124900   -0.074754    0.073990
      9          7           0      -11.152300   -0.944579    0.043750
     10          6           0      -12.461400    2.236910    0.216099
     11          6           0      -13.787800    2.031240    0.165127
     12          6           0      -14.277500    0.784205    0.065506
     13          6           0      -13.451300   -0.274379    0.018290
     14          6           0      -11.338800   -2.449970   -0.052304
     15          6           0      -11.298800   -2.906880   -1.514540
     16          6           0       -4.077200   -1.076160    0.045596
     17          6           0       -2.788300   -0.669145    0.086189
     18         16           0       -1.764260   -1.724380   -0.053268
     19          6           0       -0.592888   -0.850158   -0.012457
     20          6           0       -0.941059    0.431088    0.166302
     21          7           0       -2.208190    0.453366    0.231911
     22          6           0        0.692513   -1.217010   -0.121696
     23          6           0        1.638420   -0.265888   -0.052049
     24          6           0        1.296370    1.021090    0.125699
     25          6           0        0.006088    1.380010    0.236656
     26          6           0       -2.896460    1.738250    0.480024
     27          6           0       -3.296390    2.435140   -0.826294
     28          1           0       -8.777040   -1.971120   -0.035160
     29          1           0       -7.526890    0.822126    0.202061
     30          1           0       -6.493290   -2.063790   -0.033631
     31          1           0       -5.221440    0.713120    0.193670
     32          1           0      -12.070900    3.266040    0.294884
     33          1           0      -14.478100    2.890770    0.201996
     34          1           0      -15.368700    0.628784    0.019568
     35          1           0      -13.881500   -1.283670   -0.070502
     36          1           0      -10.572600   -2.986760    0.550878
     37          1           0      -12.304000   -2.756040    0.411028
     38          1           0      -10.324300   -2.652930   -1.990080
     39          1           0      -11.439900   -4.009230   -1.594520
     40          1           0      -12.105000   -2.415180   -2.105700
     41          1           0       -4.255720   -2.165980   -0.068779
     42          1           0        0.988114   -2.270510   -0.265122
     43          1           0        2.702310   -0.543340   -0.141052
     44          1           0        2.084430    1.791480    0.178011
     45          1           0       -0.234295    2.445370    0.371484
     46          1           0       -3.745660    1.610860    1.183020
     47          1           0       -2.259480    2.434480    1.071350
     48          1           0       -2.395590    2.690040   -1.430340
     49          1           0       -3.945850    1.790370   -1.459370
     50          1           0       -3.848810    3.381170   -0.623187
 ---------------------------------------------------------------------
                    Distance matrix (angstroms):
                    1          2          3          4          5
     1  C    0.000000
     2  C    1.348132   0.000000
     3  C    2.364125   1.346663   0.000000
     4  C    3.609085   2.370030   1.347439   0.000000
     5  C    1.348973   2.422475   3.641188   4.790997   0.000000
     6  S    2.473723   2.970445   4.316667   5.198382   1.473375
     7  C    3.505948   4.303689   5.630438   6.605523   2.190257
     8  C    3.417452   4.534571   5.754522   6.904539   2.118612
     9  N    2.351481   3.620553   4.712741   5.952423   1.312005
    10  C    4.804835   5.477426   6.821788   7.693445   3.516627
    11  C    5.770893   6.608513   7.936150   8.893669   4.427622
    12  C    5.720760   6.766138   8.030613   9.124899   4.393407
    13  C    4.687856   5.857142   7.045677   8.225307   3.435008
    14  C    2.989210   4.333045   5.120572   6.454979   2.537704
    15  C    3.584017   4.825898   5.463890   6.774261   3.332214
    16  C    4.729153   3.608426   2.365081   1.346237   5.992294
    17  C    6.017171   4.822811   3.663370   2.456155   7.239008
    18  S    7.089916   6.010387   4.737978   3.718582   8.378359
    19  C    8.209407   7.026691   5.848265   4.659738   9.441783
    20  C    7.969031   6.691388   5.673980   4.362375   9.104991
    21  N    6.728045   5.437028   4.466116   3.134046   7.845411
    22  C    9.502414   8.344045   7.138837   5.983134  10.752245
    23  C   10.458583   9.234752   8.108936   6.868403  11.656737
    24  C   10.274603   8.985199   7.987065   6.672121  11.389284
    25  C    9.093322   7.780023   6.861238   5.522460  10.162289
    26  C    6.470722   5.124792   4.476411   3.170627   7.413492
    27  C    6.483490   5.167073   4.713649   3.538725   7.310907
    28  H    1.102606   2.072833   2.546591   3.893203   2.094399
    29  H    2.125823   1.102711   2.096560   2.596210   2.728891
    30  H    2.599414   2.106001   1.104232   2.112271   3.948021
    31  H    3.918352   2.572142   2.077826   1.095489   4.900307
    32  H    5.279357   5.710112   7.047423   7.756173   4.110063
    33  H    6.812000   7.576747   8.916391   9.812260   5.478984
    34  H    6.736332   7.826669   9.070212  10.191891   5.430110
    35  H    5.097757   6.369645   7.449810   8.703340   3.993845
    36  H    2.801251   4.051618   4.627579   5.963970   2.791057
    37  H    3.991942   5.331307   6.142107   7.471465   3.378235
    38  H    3.111545   4.185651   4.704475   5.963016   3.170549
    39  H    4.418990   5.624872   6.082794   7.394475   4.328623
    40  H    4.239258   5.462230   6.235251   7.507029   3.707529
    41  H    4.728303   3.841779   2.495711   2.041648   6.062002
    42  H    9.894633   8.820010   7.548540   6.507468  11.188363
    43  H   11.510709  10.303784   9.153775   7.935113  12.724443
    44  H   11.208300   9.897619   8.959354   7.627283  12.279488
    45  H    9.193095   7.851437   7.087510   5.742395  10.161540
    46  H    5.744552   4.418303   3.893346   2.703354   6.641906
    47  H    7.400570   6.060427   5.482339   4.201104   8.279102
    48  H    7.480012   6.180435   5.650045   4.450506   8.325087
    49  H    5.742544   4.477243   4.013526   2.967863   6.604403
    50  H    6.564581   5.285582   5.104977   4.071303   7.214074
                    6          7          8          9         10
     6  S    0.000000
     7  C    1.460023   0.000000
     8  C    2.306410   1.338346   0.000000
     9  N    2.330307   2.177415   1.305167   0.000000
    10  C    2.510863   1.340995   2.340346   3.444607   0.000000
    11  C    3.701282   2.306117   2.684912   3.976945   1.343218
    12  C    4.109955   2.660226   2.317665   3.571560   2.330504
    13  C    3.573729   2.316818   1.342494   2.394831   2.706585
    14  C    3.807887   3.641875   2.505106   1.519938   4.826916
    15  C    4.563263   4.426121   3.350643   2.510051   5.550255
    16  C    6.512951   7.898232   8.109815   7.076324   9.016669
    17  C    7.626137   9.049077   9.355509   8.368642  10.101034
    18  S    8.911324  10.301498  10.491917   9.420870  11.410223
    19  C    9.808254  11.239702  11.558375  10.559984  12.265554
    20  C    9.276757  10.732253  11.195655  10.304219  11.661120
    21  N    8.012220   9.467048   9.932018   9.054654  10.407190
    22  C   11.144455  12.572691  12.869698  11.849101  13.604010
    23  C   11.916362  13.365522  13.765224  12.809072  14.322738
    24  C   11.485832  12.945020  13.466033  12.603172  13.811684
    25  C   10.196481  11.655845  12.218988  11.399585  12.496918
    26  C    7.318892   8.775085   9.413605   8.691766   9.581565
    27  C    7.082632   8.504600   9.222400   8.596208   9.226228
    28  H    3.452641   4.261657   3.849193   2.588798   5.598675
    29  H    2.684039   4.135784   4.686416   4.036076   5.133342
    30  H    4.916489   6.089294   5.973515   4.792181   7.360484
    31  H    4.987807   6.442680   6.949304   6.159995   7.398612
    32  H    2.818323   2.140055   3.348524   4.316967   1.103542
    33  H    4.621913   3.311523   3.787911   5.078965   2.120097
    34  H    5.212133   3.763382   3.319664   4.500454   3.328226
    35  H    4.443102   3.328286   2.137288   2.752557   3.807008
    36  H    4.189281   4.312598   3.334192   2.182598   5.564744
    37  H    4.465102   3.989989   2.708314   2.177773   4.999232
    38  H    4.411965   4.586863   3.761587   2.782177   5.774509
    39  H    5.625244   5.476824   4.328193   3.486937   6.583014
    40  H    4.677699   4.271671   3.198287   2.773164   5.211498
    41  H    6.812009   8.114193   8.143562   7.004805   9.316640
    42  H   11.703609  13.103544  13.299905  12.216511  14.192880
    43  H   13.008618  14.455483  14.836171  13.861651  15.420618
    44  H   12.288357  13.746095  14.331738  13.517214  14.552698
    45  H   10.036543  11.486012  12.158372  11.436870  12.229869
    46  H    6.530906   7.979041   8.618753   7.917482   8.791530
    47  H    8.075207   9.515693  10.228269   9.568503  10.239612
    48  H    8.106429   9.511061  10.225780   9.594966  10.209634
    49  H    6.490591   7.896137   8.527997   7.853167   8.690293
    50  H    6.764870   8.144240   8.995729   8.514568   8.728713
                   11         12         13         14         15
    11  C    0.000000
    12  C    1.343438   0.000000
    13  C    2.334667   1.343665   0.000000
    14  C    5.111372   4.371467   3.033288   0.000000
    15  C    5.779397   4.999331   3.729998   1.532482   0.000000
    16  C   10.196371  10.368581   9.408366   7.391060   7.611640
    17  C   11.326399  11.580776  10.670521   8.735077   8.944183
    18  S   12.598329  12.762769  11.776864   9.601994   9.718080
    19  C   13.507024  13.782084  12.871333  10.864419  11.004677
    20  C   12.946013  13.341496  12.530990  10.791724  11.011360
    21  N   11.686809  12.074990  11.268663   9.585310   9.847870
    22  C   14.842940  15.104344  14.175881  12.094523  12.189638
    23  C   15.597828  15.950957  15.089886  13.159728  13.284780
    24  C   15.118007  15.575788  14.804849  13.104483  13.295023
    25  C   13.809437  14.297033  13.560456  11.977426  12.216571
    26  C   10.899830  11.428478  10.754930   9.439156   9.805857
    27  C   10.545887  11.140272  10.544051   9.441595   9.646213
    28  H    6.416129   6.152805   4.972976   2.606186   3.069770
    29  H    6.376701   6.752097   6.027830   5.030107   5.574900
    30  H    8.367715   8.289441   7.184608   4.860910   5.098708
    31  H    8.667224   9.057246   8.290748   6.891135   7.277134
    32  H    2.118800   3.328844   3.810062   5.773152   6.478819
    33  H    1.103025   2.120492   3.332602   6.200272   6.831339
    34  H    2.118328   1.103170   2.119464   5.071882   5.605220
    35  H    3.324595   2.109839   1.100738   2.797483   3.374966
    36  H    5.972155   5.308677   3.990937   1.113119   2.190821
    37  H    5.017986   4.067852   2.762097   1.113538   2.177382
    38  H    6.211457   5.627355   4.412390   2.196674   1.113678
    39  H    6.715376   5.812459   4.538281   2.195437   1.114218
    40  H    5.268693   4.435082   3.302558   2.191964   1.114090
    41  H   10.417865  10.447856   9.388526   7.088790   7.228010
    42  H   15.395382  15.571756  14.579490  12.330057  12.366660
    43  H   16.692691  17.032880  16.156635  14.170246  14.265478
    44  H   15.874046  16.393292  15.673295  14.079277  14.284613
    45  H   13.561401  14.144423  13.498556  12.143063  12.434908
    46  H   10.102346  10.623175   9.955409   8.698974   9.205255
    47  H   11.570912  12.172425  11.563031  10.370849  10.813245
    48  H   11.522239  12.126399  11.537549  10.406714  10.516642
    49  H    9.978025  10.491931   9.838712   8.638057   8.725427
    50  H   10.061176  10.769220  10.294773   9.509367   9.789608
                   16         17         18         19         20
    16  C    0.000000
    17  C    1.352247   0.000000
    18  S    2.404091   1.477033   0.000000
    19  C    3.492116   2.205069   1.462205   0.000000
    20  C    3.481630   2.151565   2.317739   1.339690   0.000000
    21  N    2.422264   1.271925   2.240754   2.089998   1.269024
    22  C    4.774724   3.529792   2.509550   1.341182   2.338317
    23  C    5.773594   4.447199   3.702085   2.306875   2.680889
    24  C    5.768893   4.420745   4.115470   2.662696   2.314269
    25  C    4.768911   3.468470   3.585446   2.322602   1.342568
    26  C    3.082820   2.441793   3.681859   3.499834   2.372907
    27  C    3.701227   3.275266   4.499622   4.331794   3.247931
    28  H    4.784973   6.129835   7.017143   8.260594   8.198402
    29  H    3.940600   4.969059   6.305378   7.136031   6.597527
    30  H    2.611356   3.960599   4.741235   6.023960   6.090292
    31  H    2.129022   2.800425   4.237272   4.889767   4.289750
    32  H    9.100334  10.084438  11.456541  12.197635  11.485941
    33  H   11.132822  12.220386  13.527989  14.381921  13.758735
    34  H   11.419522  12.647352  13.806646  14.849677  14.429741
    35  H    9.807183  11.111313  12.125264  13.295808  13.055707
    36  H    6.789398   8.135269   8.918826  10.221402  10.227227
    37  H    8.404509   9.747266  10.600284  11.872736  11.803987
    38  H    6.756955   8.064589   8.825403  10.092639  10.109716
    39  H    8.093345   9.425027  10.060517  11.407906  11.534409
    40  H    8.418232   9.729024  10.565064  11.805070  11.742947
    41  H    1.110252   2.101869   2.530341   3.892415   4.217464
    42  H    5.213485   4.116927   2.814019   2.140282   3.347606
    43  H    6.802977   5.496750   4.620910   3.311949   3.783928
    44  H    6.797542   5.459543   5.217967   3.765974   3.317286
    45  H    5.222576   4.037888   4.461841   3.337140   2.144516
    46  H    2.936619   2.705180   4.071631   4.174416   3.208016
    47  H    4.084222   3.298891   4.336603   3.839403   2.563382
    48  H    4.380692   3.706508   4.667120   4.218190   3.125346
    49  H    3.240242   3.126962   4.369202   4.506473   3.676850
    50  H    4.513006   4.246522   5.544078   5.373840   4.216787
                   21         22         23         24         25
    21  N    0.000000
    22  C    3.365898   0.000000
    23  C    3.923566   1.343214   0.000000
    24  C    3.551835   2.331296   1.343468   0.000000
    25  C    2.400358   2.710002   2.335988   1.343861   0.000000
    26  C    1.478581   4.687895   4.986462   4.268453   2.934680
    27  C    2.496278   5.453990   5.678676   4.898905   3.626227
    28  H    7.007086   9.499927  10.554142  10.509652   9.404642
    29  H    5.331552   8.474755   9.233161   8.825833   7.553687
    30  H    4.976813   7.236059   8.328115   8.379778   7.360348
    31  H    3.024667   6.228940   6.933723   6.525436   5.270070
    32  H   10.256127  13.534252  14.161226  13.555528  12.223508
    33  H   12.509697  15.720246  16.424714  15.885069  14.562805
    34  H   13.163392  16.167544  17.030787  16.670025  15.394661
    35  H   11.805715  14.574255  15.553268  15.353115  14.144067
    36  H    9.049838  11.423097  12.525002  12.534596  11.448845
    37  H   10.595176  13.098159  14.170617  14.118009  12.987516
    38  H    8.969814  11.266006  12.351543  12.369920  11.311051
    39  H   10.415137  12.536393  13.690664  13.801299  12.783104
    40  H   10.565975  13.005700  14.061242  14.013701  12.906144
    41  H    3.338228   5.038686   6.192860   6.404759   5.552508
    42  H    4.228818   1.103546   2.118209   3.329023   3.813457
    43  H    5.024493   2.119785   1.103070   2.120204   3.333399
    44  H    4.496670   3.328403   2.117691   1.103302   2.119493
    45  H    2.807814   3.809885   3.322252   2.105212   1.100434
    46  H    2.146675   5.421855   5.834029   5.185347   3.876146
    47  H    2.152232   4.844688   4.873155   3.941573   2.634657
    48  H    2.793011   5.149172   5.187527   4.340187   3.203609
    49  H    2.769020   5.687541   6.114967   5.530380   4.320036
    50  H    3.463360   6.482158   6.613390   5.709964   4.427664
                   26         27         28         29         30
    26  C    0.000000
    27  C    1.533645   0.000000
    28  H    6.971805   7.076620   0.000000
    29  H    4.728364   4.642893   3.069425   0.000000
    30  H    5.258948   5.575738   2.285630   3.074474   0.000000
    31  H    2.557034   2.776958   4.460919   2.308041   3.062760
    32  H    9.302622   8.884788   6.195667   5.160364   7.721706
    33  H   11.642164  11.238132   7.496419   7.252490   9.400020
    34  H   12.529952  12.235975   7.086076   7.846316   9.275003
    35  H   11.406410  11.244791   5.150665   6.699980   7.429374
    36  H    9.014093   9.178063   2.144528   4.889339   4.223067
    37  H   10.426179  10.469783   3.640691   5.972246   5.868670
    38  H    8.975337   8.754106   2.584684   4.970614   4.341822
    39  H   10.503696  10.413301   3.698151   6.471580   5.539861
    40  H   10.427567  10.136769   3.944571   6.063415   5.992348
    41  H    4.170346   4.760719   4.525642   4.438771   2.240178
    42  H    5.631635   6.388664   9.772448   9.071271   7.487839
    43  H    6.077632   6.732407  11.568286  10.325636   9.321071
    44  H    4.990322   5.511456  11.496701   9.660109   9.406656
    45  H    2.756614   3.288039   9.625447   7.472989   7.724743
    46  H    1.109762   2.217797   6.295183   3.985233   4.746869
    47  H    1.113619   2.162461   7.944323   5.576823   6.275393
    48  H    2.192320   1.114130   8.024702   5.699480   6.429684
    49  H    2.205716   1.112795   6.286301   4.064689   4.834949
    50  H    2.196186   1.114178   7.299331   4.556096   6.081812
                   31         32         33         34         35
    31  H    0.000000
    32  H    7.310455   0.000000
    33  H    9.509363   2.438046   0.000000
    34  H   10.149104   4.231596   2.437833   0.000000
    35  H    8.891209   4.910361   4.225652   2.424326   0.000000
    36  H    6.515491   6.434900   7.065409   6.029679   3.772989
    37  H    7.889548   6.027709   6.054492   4.582866   2.210939
    38  H    6.491397   6.580720   7.265801   6.344628   4.267707
    39  H    8.010459   7.543047   7.750363   6.289032   3.963927
    40  H    7.902959   6.167676   6.253812   4.943098   2.928873
    41  H    3.048067   9.524502  11.407940  11.459356   9.666132
    42  H    6.904426  14.195240  16.311370  16.614220  14.903595
    43  H    8.029729  15.262672  17.523621  18.109696  16.600476
    44  H    7.385042  14.232405  16.598988  17.492533  16.261280
    45  H    5.282416  11.865268  14.251775  15.247100  14.154409
    46  H    1.990647   8.534520  10.852919  11.722336  10.615313
    47  H    3.536469   9.877163  12.258004  13.274729  12.255603
    48  H    3.811961   9.844785  12.193927  13.215619  12.229704
    49  H    2.349498   8.442242  10.719109  11.576616  10.492655
    50  H    3.109640   8.273988  10.672545  11.861561  11.077954
                   36         37         38         39         40
    36  H    0.000000
    37  H    1.752294   0.000000
    38  H    2.574794   3.113706   0.000000
    39  H    2.529899   2.517812   1.800161   0.000000
    40  H    3.119673   2.547490   1.800218   1.801294   0.000000
    41  H    6.400049   8.084132   6.384057   7.572179   8.113097
    42  H   11.611588  13.318154  11.449561  12.619270  13.222643
    43  H   13.515632  15.178609  13.325233  14.633081  15.053905
    44  H   13.534069  15.091758  13.357768  14.822200  14.975021
    45  H   11.679930  13.142831  11.548933  13.080238  13.064265
    46  H    8.254988   9.639034   8.457362   9.924791   9.843944
    47  H    9.938244  11.325630  10.014760  11.528589  11.425722
    48  H   10.149619  11.455436   9.577321  11.256408  10.990543
    49  H    8.412840   9.696747   7.791610   9.477047   9.201963
    50  H    9.334790  10.498818   8.956044  10.638898  10.196087
                   41         42         43         44         45
    41  H    0.000000
    42  H    5.248550   0.000000
    43  H    7.145094   2.436591   0.000000
    44  H    7.477961   4.230607   2.436178   0.000000
    45  H    6.134349   4.913153   4.221224   2.416917   0.000000
    46  H    4.011444   6.290530   6.926042   5.918836   3.699281
    47  H    5.142869   5.871112   5.912418   4.481189   2.142733
    48  H    5.375394   6.116718   6.172973   4.844046   2.824470
    49  H    4.205053   6.500844   7.168138   6.248623   4.190071
    50  H    5.589617   7.447518   7.651889   6.194544   3.863911
                   46         47         48         49         50
    46  H    0.000000
    47  H    1.702807   0.000000
    48  H    3.133204   2.518390   0.000000
    49  H    2.656036   3.108579   1.792639   0.000000
    50  H    2.531209   2.508714   1.800279   1.799795   0.000000
 Stoichiometry    C23H23N2S2(1+)
 Framework group  C1[X(C23H23N2S2)]
 Deg. of freedom   144
 Full point group                 C1      NOp   1
 Largest Abelian subgroup         C1      NOp   1
 Largest concise Abelian subgroup C1      NOp   1
                         Standard orientation:                         
 ---------------------------------------------------------------------
 Center     Atomic      Atomic             Coordinates (Angstroms)
 Number     Number       Type             X           Y           Z
 ---------------------------------------------------------------------
      1          6           0       -2.334283    0.840110   -0.180224
      2          6           0       -1.133560    0.227606   -0.156449
      3          6           0        0.028877    0.907283   -0.173153
      4          6           0        1.235122    0.307261   -0.149973
      5          6           0       -3.555690    0.267711   -0.164342
      6         16           0       -3.741968   -1.192684   -0.106184
      7          6           0       -5.201596   -1.174739   -0.077401
      8          6           0       -5.665628    0.079541   -0.128676
      9          7           0       -4.683738    0.937176   -0.190446
     10          6           0       -6.026634   -2.229757   -0.010205
     11          6           0       -7.350970   -2.006059    0.007891
     12          6           0       -7.827531   -0.750821   -0.037881
     13          6           0       -6.990057    0.297770   -0.105197
     14          6           0       -4.854268    2.445579   -0.266933
     15          6           0       -4.817678    3.064936    1.134338
     16          6           0        2.392273    0.995224   -0.157931
     17          6           0        3.676845    0.573051   -0.143157
     18         16           0        4.711575    1.626749   -0.117072
     19          6           0        5.873505    0.741587   -0.050379
     20          6           0        5.512340   -0.548032   -0.085189
     21          7           0        4.245439   -0.564627   -0.156671
     22          6           0        7.162202    1.105275    0.025525
     23          6           0        8.098007    0.142752    0.070714
     24          6           0        7.742894   -1.152509    0.037601
     25          6           0        6.449413   -1.508462   -0.040943
     26          6           0        3.544560   -1.862242   -0.262343
     27          6           0        3.129499   -2.402357    1.111726
     28          1           0       -2.297857    1.941660   -0.211856
     29          1           0       -1.077068   -0.873126   -0.122252
     30          1           0       -0.013257    2.010162   -0.207977
     31          1           0        1.229352   -0.787491   -0.110218
     32          1           0       -5.646995   -3.265128    0.030880
     33          1           0       -8.050430   -2.857109    0.063874
     34          1           0       -8.917207   -0.580024   -0.017453
     35          1           0       -7.409668    1.314972   -0.134368
     36          1           0       -4.078768    2.902624   -0.921718
     37          1           0       -5.813371    2.706999   -0.768678
     38          1           0       -3.848775    2.856586    1.642370
     39          1           0       -4.947139    4.170631    1.087877
     40          1           0       -5.632611    2.651734    1.771790
     41          1           0        2.225059    2.092755   -0.169059
     42          1           0        7.468507    2.165161    0.050677
     43          1           0        9.164346    0.417596    0.135103
     44          1           0        8.522746   -1.931893    0.078430
     45          1           0        6.198142   -2.579721   -0.055824
     46          1           0        2.700869   -1.806708   -0.981143
     47          1           0        4.177261   -2.627529   -0.766498
     48          1           0        4.023958   -2.596322    1.747028
     49          1           0        2.483515   -1.683332    1.663107
     50          1           0        2.567916   -3.359609    1.013310
 ---------------------------------------------------------------------
 Rotational constants (GHZ):      0.5858726      0.0491939      0.0458240
 Standard basis: 6-31G(d) (6D, 7F)
 There are   459 symmetry adapted basis functions of A   symmetry.
 Integral buffers will be    262144 words long.
 Raffenetti 2 integral format.
 Two-electron integral symmetry is turned on.
   459 basis functions,   896 primitive gaussians,   459 cartesian basis functions
   103 alpha electrons      103 beta electrons
       nuclear repulsion energy      2558.8023588190 Hartrees.
 NAtoms=   50 NActive=   50 NUniq=   50 SFac= 7.50D-01 NAtFMM=   80 NAOKFM=F Big=F
 One-electron integrals computed using PRISM.
 NBasis=   459 RedAO= T  NBF=   459
 NBsUse=   459 1.00D-06 NBFU=   459
 Harris functional with IExCor=  402 diagonalized for initial guess.
 ExpMin= 1.17D-01 ExpMax= 2.19D+04 ExpMxC= 3.30D+03 IAcc=1 IRadAn=         1 AccDes= 0.00D+00
 HarFok:  IExCor=  402 AccDes= 0.00D+00 IRadAn=         1 IDoV= 1
 ScaDFX=  1.000000  1.000000  1.000000  1.000000
 FoFCou: FMM=F IPFlag=           0 FMFlag=      100000 FMFlg1=           0
         NFxFlg=           0 DoJE=T BraDBF=F KetDBF=T FulRan=T
         Omega=  0.000000  0.000000  1.000000  0.000000  0.000000 ICntrl=     500 IOpCl=  0
         NMat0=    1 NMatS0=    1 NMatT0=    0 NMatD0=    1 NMtDS0=    0 NMtDT0=    0
         I1Cent=           4 NGrid=           0.
 Petite list used in FoFCou.
 Initial guess orbital symmetries:
       Occupied  (A) (A) (A) (A) (A) (A) (A) (A) (A) (A) (A) (A)
                 (A) (A) (A) (A) (A) (A) (A) (A) (A) (A) (A) (A)
                 (A) (A) (A) (A) (A) (A) (A) (A) (A) (A) (A) (A)
                 (A) (A) (A) (A) (A) (A) (A) (A) (A) (A) (A) (A)
                 (A) (A) (A) (A) (A) (A) (A) (A) (A) (A) (A) (A)
                 (A) (A) (A) (A) (A) (A) (A) (A) (A) (A) (A) (A)
                 (A) (A) (A) (A) (A) (A) (A) (A) (A) (A) (A) (A)
                 (A) (A) (A) (A) (A) (A) (A) (A) (A) (A) (A) (A)
                 (A) (A) (A) (A) (A) (A) (A)
       Virtual   (A) (A) (A) (A) (A) (A) (A) (A) (A) (A) (A) (A)
                 (A) (A) (A) (A) (A) (A) (A) (A) (A) (A) (A) (A)
                 (A) (A) (A) (A) (A) (A) (A) (A) (A) (A) (A) (A)
                 (A) (A) (A) (A) (A) (A) (A) (A) (A) (A) (A) (A)
                 (A) (A) (A) (A) (A) (A) (A) (A) (A) (A) (A) (A)
                 (A) (A) (A) (A) (A) (A) (A) (A) (A) (A) (A) (A)
                 (A) (A) (A) (A) (A) (A) (A) (A) (A) (A) (A) (A)
                 (A) (A) (A) (A) (A) (A) (A) (A) (A) (A) (A) (A)
                 (A) (A) (A) (A) (A) (A) (A) (A) (A) (A) (A) (A)
                 (A) (A) (A) (A) (A) (A) (A) (A) (A) (A) (A) (A)
                 (A) (A) (A) (A) (A) (A) (A) (A) (A) (A) (A) (A)
                 (A) (A) (A) (A) (A) (A) (A) (A) (A) (A) (A) (A)
                 (A) (A) (A) (A) (A) (A) (A) (A) (A) (A) (A) (A)
                 (A) (A) (A) (A) (A) (A) (A) (A) (A) (A) (A) (A)
                 (A) (A) (A) (A) (A) (A) (A) (A) (A) (A) (A) (A)
                 (A) (A) (A) (A) (A) (A) (A) (A) (A) (A) (A) (A)
                 (A) (A) (A) (A) (A) (A) (A) (A) (A) (A) (A) (A)
                 (A) (A) (A) (A) (A) (A) (A) (A) (A) (A) (A) (A)
                 (A) (A) (A) (A) (A) (A) (A) (A) (A) (A) (A) (A)
                 (A) (A) (A) (A) (A) (A) (A) (A) (A) (A) (A) (A)
                 (A) (A) (A) (A) (A) (A) (A) (A) (A) (A) (A) (A)
                 (A) (A) (A) (A) (A) (A) (A) (A) (A) (A) (A) (A)
                 (A) (A) (A) (A) (A) (A) (A) (A) (A) (A) (A) (A)
                 (A) (A) (A) (A) (A) (A) (A) (A) (A) (A) (A) (A)
                 (A) (A) (A) (A) (A) (A) (A) (A) (A) (A) (A) (A)
                 (A) (A) (A) (A) (A) (A) (A) (A) (A) (A) (A) (A)
                 (A) (A) (A) (A) (A) (A) (A) (A) (A) (A) (A) (A)
                 (A) (A) (A) (A) (A) (A) (A) (A) (A) (A) (A) (A)
                 (A) (A) (A) (A) (A) (A) (A) (A) (A) (A) (A) (A)
                 (A) (A) (A) (A) (A) (A) (A) (A)
 The electronic state of the initial guess is 1-A.
 Requested convergence on RMS density matrix=1.00D-08 within 128 cycles.
 Requested convergence on MAX density matrix=1.00D-06.
 Requested convergence on             energy=1.00D-06.
 No special actions if energy rises.
 Integral accuracy reduced to 1.0D-05 until final iterations.
 Initial convergence to 1.0D-05 achieved.  Increase integral accuracy.
 SCF Done:  E(RB3LYP) =  -1795.62658273     A.U. after   17 cycles
             Convg  =    0.3915D-08             -V/T =  2.0032

 **********************************************************************

            Population analysis using the SCF density.

 **********************************************************************

 Orbital symmetries:
       Occupied  (A) (A) (A) (A) (A) (A) (A) (A) (A) (A) (A) (A)
                 (A) (A) (A) (A) (A) (A) (A) (A) (A) (A) (A) (A)
                 (A) (A) (A) (A) (A) (A) (A) (A) (A) (A) (A) (A)
                 (A) (A) (A) (A) (A) (A) (A) (A) (A) (A) (A) (A)
                 (A) (A) (A) (A) (A) (A) (A) (A) (A) (A) (A) (A)
                 (A) (A) (A) (A) (A) (A) (A) (A) (A) (A) (A) (A)
                 (A) (A) (A) (A) (A) (A) (A) (A) (A) (A) (A) (A)
                 (A) (A) (A) (A) (A) (A) (A) (A) (A) (A) (A) (A)
                 (A) (A) (A) (A) (A) (A) (A)
       Virtual   (A) (A) (A) (A) (A) (A) (A) (A) (A) (A) (A) (A)
                 (A) (A) (A) (A) (A) (A) (A) (A) (A) (A) (A) (A)
                 (A) (A) (A) (A) (A) (A) (A) (A) (A) (A) (A) (A)
                 (A) (A) (A) (A) (A) (A) (A) (A) (A) (A) (A) (A)
                 (A) (A) (A) (A) (A) (A) (A) (A) (A) (A) (A) (A)
                 (A) (A) (A) (A) (A) (A) (A) (A) (A) (A) (A) (A)
                 (A) (A) (A) (A) (A) (A) (A) (A) (A) (A) (A) (A)
                 (A) (A) (A) (A) (A) (A) (A) (A) (A) (A) (A) (A)
                 (A) (A) (A) (A) (A) (A) (A) (A) (A) (A) (A) (A)
                 (A) (A) (A) (A) (A) (A) (A) (A) (A) (A) (A) (A)
                 (A) (A) (A) (A) (A) (A) (A) (A) (A) (A) (A) (A)
                 (A) (A) (A) (A) (A) (A) (A) (A) (A) (A) (A) (A)
                 (A) (A) (A) (A) (A) (A) (A) (A) (A) (A) (A) (A)
                 (A) (A) (A) (A) (A) (A) (A) (A) (A) (A) (A) (A)
                 (A) (A) (A) (A) (A) (A) (A) (A) (A) (A) (A) (A)
                 (A) (A) (A) (A) (A) (A) (A) (A) (A) (A) (A) (A)
                 (A) (A) (A) (A) (A) (A) (A) (A) (A) (A) (A) (A)
                 (A) (A) (A) (A) (A) (A) (A) (A) (A) (A) (A) (A)
                 (A) (A) (A) (A) (A) (A) (A) (A) (A) (A) (A) (A)
                 (A) (A) (A) (A) (A) (A) (A) (A) (A) (A) (A) (A)
                 (A) (A) (A) (A) (A) (A) (A) (A) (A) (A) (A) (A)
                 (A) (A) (A) (A) (A) (A) (A) (A) (A) (A) (A) (A)
                 (A) (A) (A) (A) (A) (A) (A) (A) (A) (A) (A) (A)
                 (A) (A) (A) (A) (A) (A) (A) (A) (A) (A) (A) (A)
                 (A) (A) (A) (A) (A) (A) (A) (A) (A) (A) (A) (A)
                 (A) (A) (A) (A) (A) (A) (A) (A) (A) (A) (A) (A)
                 (A) (A) (A) (A) (A) (A) (A) (A) (A) (A) (A) (A)
                 (A) (A) (A) (A) (A) (A) (A) (A) (A) (A) (A) (A)
                 (A) (A) (A) (A) (A) (A) (A) (A) (A) (A) (A) (A)
                 (A) (A) (A) (A) (A) (A) (A) (A)
 The electronic state is 1-A.
 Alpha  occ. eigenvalues --  -89.00213 -89.00182 -14.51433 -14.50795 -10.35347
 Alpha  occ. eigenvalues --  -10.35340 -10.34964 -10.34901 -10.32885 -10.32559
 Alpha  occ. eigenvalues --  -10.29725 -10.29684 -10.29648 -10.29135 -10.29067
 Alpha  occ. eigenvalues --  -10.29031 -10.28797 -10.28737 -10.28550 -10.28198
 Alpha  occ. eigenvalues --  -10.28089 -10.28012 -10.27647 -10.27552 -10.27269
 Alpha  occ. eigenvalues --  -10.27189 -10.26494  -8.08377  -8.08339  -6.04665
 Alpha  occ. eigenvalues --   -6.04622  -6.04206  -6.04156  -6.03917  -6.03892
 Alpha  occ. eigenvalues --   -1.20914  -1.18303  -1.02997  -1.02418  -0.99297
 Alpha  occ. eigenvalues --   -0.98517  -0.94106  -0.92264  -0.89526  -0.88797
 Alpha  occ. eigenvalues --   -0.88424  -0.86102  -0.85558  -0.84815  -0.80639
 Alpha  occ. eigenvalues --   -0.77457  -0.76814  -0.76430  -0.76170  -0.74321
 Alpha  occ. eigenvalues --   -0.72004  -0.70560  -0.70209  -0.67650  -0.66166
 Alpha  occ. eigenvalues --   -0.64400  -0.63849  -0.62544  -0.62420  -0.62259
 Alpha  occ. eigenvalues --   -0.60965  -0.59604  -0.58731  -0.57095  -0.56669
 Alpha  occ. eigenvalues --   -0.56002  -0.55783  -0.55360  -0.54229  -0.53504
 Alpha  occ. eigenvalues --   -0.53259  -0.51774  -0.51664  -0.51169  -0.49954
 Alpha  occ. eigenvalues --   -0.49368  -0.49165  -0.48716  -0.48430  -0.48028
 Alpha  occ. eigenvalues --   -0.47832  -0.46911  -0.46379  -0.46177  -0.45780
 Alpha  occ. eigenvalues --   -0.45682  -0.45221  -0.44598  -0.44472  -0.44239
 Alpha  occ. eigenvalues --   -0.44173  -0.43986  -0.40311  -0.37399  -0.34239
 Alpha  occ. eigenvalues --   -0.33909  -0.33203  -0.25865
 Alpha virt. eigenvalues --   -0.16709  -0.10670  -0.09579  -0.08805  -0.07575
 Alpha virt. eigenvalues --   -0.07019  -0.04474  -0.04271  -0.03143  -0.01958
 Alpha virt. eigenvalues --   -0.01836  -0.00336   0.00145   0.00604   0.00690
 Alpha virt. eigenvalues --    0.01263   0.02144   0.02298   0.02550   0.02917
 Alpha virt. eigenvalues --    0.04016   0.04153   0.04863   0.05116   0.05527
 Alpha virt. eigenvalues --    0.05772   0.06481   0.06578   0.06928   0.07251
 Alpha virt. eigenvalues --    0.07626   0.08277   0.08417   0.09595   0.10580
 Alpha virt. eigenvalues --    0.10787   0.11355   0.11540   0.12010   0.12361
 Alpha virt. eigenvalues --    0.12941   0.14399   0.16292   0.16803   0.17694
 Alpha virt. eigenvalues --    0.18338   0.19558   0.21451   0.21679   0.23471
 Alpha virt. eigenvalues --    0.23755   0.23943   0.24880   0.24966   0.26592
 Alpha virt. eigenvalues --    0.27857   0.28239   0.28924   0.29436   0.31031
 Alpha virt. eigenvalues --    0.32369   0.33033   0.33514   0.34311   0.36406
 Alpha virt. eigenvalues --    0.38075   0.38212   0.40054   0.40627   0.41358
 Alpha virt. eigenvalues --    0.41623   0.42074   0.42816   0.43633   0.44207
 Alpha virt. eigenvalues --    0.44774   0.44958   0.45243   0.45780   0.46373
 Alpha virt. eigenvalues --    0.47419   0.47869   0.48196   0.48515   0.49453
 Alpha virt. eigenvalues --    0.50085   0.50292   0.50579   0.50871   0.51192
 Alpha virt. eigenvalues --    0.51757   0.51955   0.51970   0.52324   0.52562
 Alpha virt. eigenvalues --    0.52770   0.52928   0.53230   0.53879   0.54307
 Alpha virt. eigenvalues --    0.54552   0.54764   0.55213   0.56012   0.57055
 Alpha virt. eigenvalues --    0.58060   0.58741   0.59025   0.59380   0.60001
 Alpha virt. eigenvalues --    0.61669   0.62932   0.63479   0.64077   0.64947
 Alpha virt. eigenvalues --    0.65186   0.66340   0.68892   0.69830   0.70307
 Alpha virt. eigenvalues --    0.70379   0.71022   0.71512   0.71594   0.71708
 Alpha virt. eigenvalues --    0.72585   0.73304   0.73629   0.74015   0.74213
 Alpha virt. eigenvalues --    0.74806   0.74839   0.75796   0.76310   0.76853
 Alpha virt. eigenvalues --    0.77244   0.78172   0.78491   0.78744   0.78847
 Alpha virt. eigenvalues --    0.80382   0.81404   0.81670   0.82320   0.83105
 Alpha virt. eigenvalues --    0.83560   0.83932   0.85048   0.85731   0.86407
 Alpha virt. eigenvalues --    0.86645   0.87317   0.87832   0.88203   0.89159
 Alpha virt. eigenvalues --    0.90224   0.90546   0.91611   0.92611   0.93015
 Alpha virt. eigenvalues --    0.93393   0.94075   0.95011   0.95650   0.97013
 Alpha virt. eigenvalues --    0.97844   0.98888   1.00580   1.01939   1.04460
 Alpha virt. eigenvalues --    1.05474   1.05932   1.07167   1.08849   1.09567
 Alpha virt. eigenvalues --    1.10408   1.11547   1.12583   1.13047   1.13404
 Alpha virt. eigenvalues --    1.13958   1.15605   1.17394   1.19417   1.20761
 Alpha virt. eigenvalues --    1.21184   1.21719   1.23006   1.24049   1.24427
 Alpha virt. eigenvalues --    1.25025   1.27662   1.29375   1.29833   1.30837
 Alpha virt. eigenvalues --    1.31778   1.33078   1.33940   1.33944   1.34171
 Alpha virt. eigenvalues --    1.35384   1.36341   1.36754   1.37985   1.38738
 Alpha virt. eigenvalues --    1.39526   1.40844   1.41159   1.42452   1.46123
 Alpha virt. eigenvalues --    1.46618   1.47786   1.50377   1.51882   1.53881
 Alpha virt. eigenvalues --    1.55651   1.56058   1.56790   1.59076   1.59458
 Alpha virt. eigenvalues --    1.61494   1.63628   1.64623   1.65133   1.67880
 Alpha virt. eigenvalues --    1.69015   1.69472   1.70720   1.76140   1.77833
 Alpha virt. eigenvalues --    1.78428   1.78804   1.79488   1.80123   1.80672
 Alpha virt. eigenvalues --    1.81992   1.82728   1.83351   1.84218   1.85532
 Alpha virt. eigenvalues --    1.86190   1.86639   1.86906   1.87389   1.89098
 Alpha virt. eigenvalues --    1.90319   1.93260   1.93782   1.94132   1.96971
 Alpha virt. eigenvalues --    1.98053   1.99690   2.00454   2.00759   2.01708
 Alpha virt. eigenvalues --    2.03054   2.04531   2.05053   2.08436   2.08738
 Alpha virt. eigenvalues --    2.08861   2.10272   2.11586   2.12122   2.13773
 Alpha virt. eigenvalues --    2.14138   2.14316   2.15033   2.16249   2.16453
 Alpha virt. eigenvalues --    2.16900   2.17406   2.19675   2.20136   2.20935
 Alpha virt. eigenvalues --    2.21614   2.22836   2.23468   2.23599   2.23732
 Alpha virt. eigenvalues --    2.25434   2.25661   2.26433   2.29595   2.31514
 Alpha virt. eigenvalues --    2.32143   2.36231   2.38895   2.39594   2.42464
 Alpha virt. eigenvalues --    2.43944   2.44503   2.47235   2.48277   2.48927
 Alpha virt. eigenvalues --    2.49512   2.51921   2.52857   2.53482   2.55468
 Alpha virt. eigenvalues --    2.55750   2.57966   2.60007   2.62322   2.65972
 Alpha virt. eigenvalues --    2.67799   2.68895   2.69055   2.70808   2.71512
 Alpha virt. eigenvalues --    2.72914   2.73174   2.77502   2.79160   2.83475
 Alpha virt. eigenvalues --    2.85155   2.86380   2.89330   2.91850   2.95070
 Alpha virt. eigenvalues --    2.96970   3.03901   3.09836   3.15367   3.24087
 Alpha virt. eigenvalues --    3.28283   3.28579   3.52390   3.55216   3.89939
 Alpha virt. eigenvalues --    3.90403   3.99038   4.01422   4.03093   4.03499
 Alpha virt. eigenvalues --    4.05161   4.05358   4.06212   4.06808   4.09319
 Alpha virt. eigenvalues --    4.12123   4.14071   4.19268   4.23501   4.24457
 Alpha virt. eigenvalues --    4.28869   4.31826   4.32972   4.34536   4.38370
 Alpha virt. eigenvalues --    4.46326   4.52306   4.57117   4.60504   4.74162
 Alpha virt. eigenvalues --    4.75461
          Condensed to atoms (all electrons):
              1          2          3          4          5          6
     1  C    5.237196   0.493122  -0.004982   0.002027   0.380921  -0.135036
     2  C    0.493122   4.869805   0.488726   0.016254  -0.000155  -0.009259
     3  C   -0.004982   0.488726   4.895339   0.477180   0.006292   0.001452
     4  C    0.002027   0.016254   0.477180   4.878762  -0.000704   0.000061
     5  C    0.380921  -0.000155   0.006292  -0.000704   4.837401   0.416518
     6  S   -0.135036  -0.009259   0.001452   0.000061   0.416518  15.442913
     7  C    0.004388   0.000416   0.000002   0.000000  -0.074110   0.328228
     8  C    0.012542   0.000354  -0.000008   0.000000  -0.060763  -0.101865
     9  N   -0.030346   0.005704  -0.000158   0.000001   0.352878  -0.114703
    10  C   -0.000667   0.000011   0.000000   0.000000   0.000631  -0.125572
    11  C    0.000024   0.000000   0.000000   0.000000   0.000155   0.008563
    12  C    0.000002   0.000000   0.000000   0.000000   0.000427   0.000658
    13  C   -0.000807   0.000009   0.000000   0.000000   0.004984   0.019637
    14  C   -0.005111   0.000066  -0.000002   0.000000  -0.038765   0.007608
    15  C   -0.001423   0.000006   0.000002   0.000000  -0.000067  -0.000086
    16  C   -0.000479   0.001768   0.003813   0.471779   0.000004   0.000000
    17  C    0.000003  -0.000627   0.005707  -0.002361   0.000000   0.000000
    18  S    0.000000   0.000018  -0.000216   0.007415   0.000000   0.000000
    19  C    0.000000   0.000000   0.000000   0.000142   0.000000   0.000000
    20  C    0.000000   0.000000   0.000018  -0.001161   0.000000   0.000000
    21  N    0.000000   0.000004   0.000283  -0.015934   0.000000   0.000000
    22  C    0.000000   0.000000   0.000000   0.000013   0.000000   0.000000
    23  C    0.000000   0.000000   0.000000   0.000000   0.000000   0.000000
    24  C    0.000000   0.000000   0.000000   0.000000   0.000000   0.000000
    25  C    0.000000   0.000000   0.000000  -0.000015   0.000000   0.000000
    26  C    0.000000  -0.000014   0.000341   0.001715   0.000000   0.000000
    27  C    0.000000  -0.000005   0.000095  -0.003005   0.000000   0.000000
    28  H    0.360277  -0.050159  -0.010097   0.000979  -0.045465   0.007366
    29  H   -0.061775   0.362331  -0.050053  -0.007521  -0.010763   0.009080
    30  H   -0.006822  -0.062915   0.380003  -0.064968   0.001055   0.000042
    31  H    0.000990  -0.008642  -0.050321   0.363493   0.000025  -0.000006
    32  H   -0.000007   0.000001   0.000000   0.000000   0.000039  -0.002415
    33  H    0.000000   0.000000   0.000000   0.000000   0.000001  -0.000312
    34  H    0.000000   0.000000   0.000000   0.000000   0.000003   0.000042
    35  H    0.000002   0.000000   0.000000   0.000000  -0.000324  -0.000673
    36  H    0.003289   0.000228  -0.000026   0.000000  -0.004830  -0.000101
    37  H    0.000150  -0.000007   0.000000   0.000000   0.003420  -0.000283
    38  H    0.002253  -0.000072  -0.000023   0.000000   0.002340  -0.000101
    39  H   -0.000030   0.000000   0.000000   0.000000  -0.000069  -0.000001
    40  H    0.000016   0.000001   0.000000   0.000000  -0.000067   0.000042
    41  H    0.000013   0.000891  -0.010223  -0.046492   0.000000   0.000000
    42  H    0.000000   0.000000   0.000000   0.000000   0.000000   0.000000
    43  H    0.000000   0.000000   0.000000   0.000000   0.000000   0.000000
    44  H    0.000000   0.000000   0.000000   0.000000   0.000000   0.000000
    45  H    0.000000   0.000000   0.000000   0.000000   0.000000   0.000000
    46  H    0.000000  -0.000040   0.000329   0.001240   0.000000   0.000000
    47  H    0.000000   0.000000  -0.000008   0.000114   0.000000   0.000000
    48  H    0.000000   0.000000  -0.000001   0.000065   0.000000   0.000000
    49  H    0.000000  -0.000010  -0.000069   0.002216   0.000000   0.000000
    50  H    0.000000   0.000000  -0.000003  -0.000010   0.000000   0.000000
              7          8          9         10         11         12
     1  C    0.004388   0.012542  -0.030346  -0.000667   0.000024   0.000002
     2  C    0.000416   0.000354   0.005704   0.000011   0.000000   0.000000
     3  C    0.000002  -0.000008  -0.000158   0.000000   0.000000   0.000000
     4  C    0.000000   0.000000   0.000001   0.000000   0.000000   0.000000
     5  C   -0.074110  -0.060763   0.352878   0.000631   0.000155   0.000427
     6  S    0.328228  -0.101865  -0.114703  -0.125572   0.008563   0.000658
     7  C    5.090882   0.491144  -0.070754   0.436784   0.004707  -0.057717
     8  C    0.491144   4.616493   0.287755   0.037085  -0.061537   0.020525
     9  N   -0.070754   0.287755   7.055635   0.015426  -0.000283   0.007508
    10  C    0.436784   0.037085   0.015426   5.083027   0.515173  -0.017223
    11  C    0.004707  -0.061537  -0.000283   0.515173   4.819656   0.559787
    12  C   -0.057717   0.020525   0.007508  -0.017223   0.559787   4.816062
    13  C   -0.071179   0.470923  -0.103791  -0.078330  -0.030722   0.531033
    14  C    0.007561  -0.043995   0.263740  -0.000030  -0.000015   0.000231
    15  C   -0.000590  -0.000128  -0.051560  -0.000003   0.000003  -0.000020
    16  C    0.000000   0.000000   0.000000   0.000000   0.000000   0.000000
    17  C    0.000000   0.000000   0.000000   0.000000   0.000000   0.000000
    18  S    0.000000   0.000000   0.000000   0.000000   0.000000   0.000000
    19  C    0.000000   0.000000   0.000000   0.000000   0.000000   0.000000
    20  C    0.000000   0.000000   0.000000   0.000000   0.000000   0.000000
    21  N    0.000000   0.000000   0.000000   0.000000   0.000000   0.000000
    22  C    0.000000   0.000000   0.000000   0.000000   0.000000   0.000000
    23  C    0.000000   0.000000   0.000000   0.000000   0.000000   0.000000
    24  C    0.000000   0.000000   0.000000   0.000000   0.000000   0.000000
    25  C    0.000000   0.000000   0.000000   0.000000   0.000000   0.000000
    26  C    0.000000   0.000000   0.000000   0.000000   0.000000   0.000000
    27  C    0.000000   0.000000   0.000000   0.000000   0.000000   0.000000
    28  H    0.000122  -0.000959  -0.015477   0.000012   0.000000   0.000000
    29  H    0.000165  -0.000020   0.000086   0.000008   0.000000   0.000000
    30  H    0.000001   0.000000   0.000002   0.000000   0.000000   0.000000
    31  H    0.000000   0.000000   0.000000   0.000000   0.000000   0.000000
    32  H   -0.057684   0.004866  -0.000129   0.367402  -0.036753   0.005174
    33  H    0.004646   0.001498   0.000006  -0.040377   0.360553  -0.039057
    34  H    0.001348   0.003248  -0.000145   0.005707  -0.038470   0.358439
    35  H    0.007306  -0.043395  -0.010060   0.001017   0.004972  -0.037498
    36  H   -0.000242   0.002952  -0.028109   0.000002   0.000000  -0.000006
    37  H    0.000054  -0.005146  -0.027507   0.000004  -0.000007   0.000184
    38  H   -0.000001  -0.000016  -0.004805   0.000000   0.000000   0.000001
    39  H    0.000009  -0.000054   0.003561   0.000000   0.000000   0.000000
    40  H   -0.000131   0.002467  -0.004471  -0.000007   0.000004  -0.000062
    41  H    0.000000   0.000000   0.000000   0.000000   0.000000   0.000000
    42  H    0.000000   0.000000   0.000000   0.000000   0.000000   0.000000
    43  H    0.000000   0.000000   0.000000   0.000000   0.000000   0.000000
    44  H    0.000000   0.000000   0.000000   0.000000   0.000000   0.000000
    45  H    0.000000   0.000000   0.000000   0.000000   0.000000   0.000000
    46  H    0.000000   0.000000   0.000000   0.000000   0.000000   0.000000
    47  H    0.000000   0.000000   0.000000   0.000000   0.000000   0.000000
    48  H    0.000000   0.000000   0.000000   0.000000   0.000000   0.000000
    49  H    0.000000   0.000000   0.000000   0.000000   0.000000   0.000000
    50  H    0.000000   0.000000   0.000000   0.000000   0.000000   0.000000
             13         14         15         16         17         18
     1  C   -0.000807  -0.005111  -0.001423  -0.000479   0.000003   0.000000
     2  C    0.000009   0.000066   0.000006   0.001768  -0.000627   0.000018
     3  C    0.000000  -0.000002   0.000002   0.003813   0.005707  -0.000216
     4  C    0.000000   0.000000   0.000000   0.471779  -0.002361   0.007415
     5  C    0.004984  -0.038765  -0.000067   0.000004   0.000000   0.000000
     6  S    0.019637   0.007608  -0.000086   0.000000   0.000000   0.000000
     7  C   -0.071179   0.007561  -0.000590   0.000000   0.000000   0.000000
     8  C    0.470923  -0.043995  -0.000128   0.000000   0.000000   0.000000
     9  N   -0.103791   0.263740  -0.051560   0.000000   0.000000   0.000000
    10  C   -0.078330  -0.000030  -0.000003   0.000000   0.000000   0.000000
    11  C   -0.030722  -0.000015   0.000003   0.000000   0.000000   0.000000
    12  C    0.531033   0.000231  -0.000020   0.000000   0.000000   0.000000
    13  C    5.088661  -0.000766  -0.000030   0.000000   0.000000   0.000000
    14  C   -0.000766   4.977939   0.357565   0.000000   0.000000   0.000000
    15  C   -0.000030   0.357565   5.105686   0.000000   0.000000   0.000000
    16  C    0.000000   0.000000   0.000000   5.207115   0.434655  -0.079484
    17  C    0.000000   0.000000   0.000000   0.434655   4.796458   0.345854
    18  S    0.000000   0.000000   0.000000  -0.079484   0.345854  15.442329
    19  C    0.000000   0.000000   0.000000   0.001743  -0.094307   0.354853
    20  C    0.000000   0.000000   0.000000   0.006490  -0.062119  -0.104554
    21  N    0.000000   0.000000   0.000000  -0.049140   0.394560  -0.121175
    22  C    0.000000   0.000000   0.000000  -0.000221   0.003411  -0.118234
    23  C    0.000000   0.000000   0.000000   0.000009  -0.000069   0.008196
    24  C    0.000000   0.000000   0.000000   0.000007   0.000480   0.000624
[...]
 133149,0.01554012,-0.00000048,0.00000241,-0.00000450,-0.00001008,0.000
 01667,0.00000766,0.00000168,-0.00000091,-0.00003564,-0.00020847,-0.000
 22895,0.00013531,0.00000204,0.00000306,0.00000035,-0.00000455,0.000001
 03,-0.00000044,-0.00000472,0.00000173,-0.00000007,0.00000325,-0.000003
 18,-0.00000145,0.00001066,-0.00000323,-0.00000009,-0.00001041,-0.00000
 816,-0.00000167,0.00000093,0.00000445,0.00000516,-0.00000075,-0.000009
 09,-0.00000772,-0.00000269,0.00000409,0.00000197,-0.00009362,-0.000023
 51,0.00014091,-0.00002367,-0.00000332,-0.00002148,-0.00000054,0.000022
 61,0.00000292,-0.00001269,0.00000573,-0.00001050,-0.00058146,0.0004210
 3,0.00023203,-0.00687829,-0.00443540,-0.00705534,0.07595631,0.12150140
 ,-0.00016501,0.00001518,-0.00000447,0.00018825,-0.00003630,0.00001082,
 -0.00034837,0.00016195,0.00006642,0.00067657,-0.00012390,0.00017930,0.
 00014016,-0.00006613,-0.00000229,0.00001092,0.00003022,-0.00000274,-0.
 00001195,0.00000076,0.00000179,-0.00000259,-0.00000367,-0.00000034,-0.
 00006708,-0.00003182,0.00000527,0.00000703,-0.00001259,0.00000094,-0.0
 0001563,-0.00000820,0.,-0.00000281,0.00001953,-0.00000006,0.00001308,0
 .00000081,-0.00000046,0.00000437,0.00002995,-0.00000484,0.00000141,-0.
 00000511,0.00000340,-0.00041680,0.00010675,0.00011561,0.00229410,0.001
 46608,-0.00115944,0.00030845,-0.00027367,0.00014493,-0.00014304,-0.000
 49665,-0.00005871,-0.00147526,-0.00040698,0.00047662,-0.00453099,-0.01
 216284,-0.00752983,-0.00007120,0.00019090,0.00007182,-0.00005988,-0.00
 000184,-0.00003900,0.00005119,0.00050097,0.00021420,0.00005203,-0.0008
 7008,-0.00004943,-0.10309090,-0.07832413,-0.16427837,-0.01638309,-0.00
 912658,-0.01649571,-0.00000194,-0.00000061,-0.00000349,-0.00000469,0.0
 0000211,-0.00000293,0.00004311,0.00002396,-0.00001885,-0.00004021,0.00
 031496,-0.00014846,0.00000159,0.00000010,-0.00000040,-0.00000137,0.000
 00047,-0.00000032,-0.00000162,0.00000027,-0.00000009,0.00000063,-0.000
 00121,-0.00000044,0.00000294,-0.00000090,0.00000012,-0.00000300,-0.000
 00236,-0.00000023,-0.00000023,0.00000214,0.00000113,-0.00000058,-0.000
 00324,-0.00000194,-0.00000019,0.00000157,0.00000052,-0.00005047,-0.000
 00636,0.00011023,-0.00001647,0.00001855,-0.00002145,-0.00003204,0.0000
 7664,0.00000007,-0.00000640,-0.00002081,0.00002354,0.00098237,0.000953
 09,-0.00017463,0.00916242,0.00797448,0.01312461,0.11337847,0.08718815,
 0.17603028,-0.00012337,-0.00000480,-0.00000256,0.00011266,0.00007726,0
 .00000396,0.00001493,-0.00014821,0.00001498,-0.00002029,0.00033595,0.0
 0008129,0.00014867,-0.00005394,-0.00000018,0.00001514,0.00003633,0.000
 00105,0.00000802,-0.00000639,0.00000021,-0.00000647,-0.00001071,0.0000
 0032,-0.00008656,-0.00003556,0.00000329,0.00000163,-0.00001722,-0.0000
 0008,-0.00001714,-0.00000755,-0.00000058,-0.00000436,0.00002172,-0.000
 00036,0.00001350,0.00000015,-0.00000093,0.00000633,0.00003628,-0.00000
 148,0.00000128,-0.00000591,0.00000436,-0.00015107,-0.00014581,0.000029
 44,-0.00001028,0.00014921,0.00016712,0.00003552,-0.00010574,-0.0000520
 3,0.00010255,-0.00003997,0.00003260,0.00021107,0.00012248,0.00003363,0
 .00089557,-0.00105064,0.00009869,-0.00006402,-0.00002901,0.00000137,0.
 00000697,0.00004829,0.00001665,-0.00001276,-0.00003750,-0.00002907,-0.
 00049481,0.00001975,-0.00030702,0.01034881,0.00528795,-0.00666368,-0.2
 2189912,-0.07876654,0.10484782,-0.00000809,-0.00000653,-0.00000060,0.0
 0003176,-0.00001120,-0.00000336,-0.00004109,-0.00003485,-0.00001050,0.
 00008714,0.00001168,-0.00012123,0.00000318,0.00000002,0.00000136,-0.00
 000291,0.00000066,0.00000031,-0.00000246,0.00000025,0.00000030,0.00000
 021,-0.00000166,-0.00000008,0.00000330,-0.00000033,-0.00000251,-0.0000
 0454,-0.00000325,-0.00000105,0.00000078,0.00000223,0.00000333,-0.00000
 034,-0.00000404,-0.00000253,-0.00000176,0.00000225,0.00000055,0.000043
 77,-0.00002870,-0.00001238,-0.00000118,0.00000020,-0.00001703,0.000008
 40,-0.00000650,0.00000968,0.00000794,0.00000269,-0.00000256,-0.0003539
 3,0.00010965,-0.00034337,0.00004837,0.00217088,-0.00227821,0.00066107,
 -0.00047427,0.00065087,0.23781776,0.00007705,-0.00000551,-0.00000064,-
 0.00008491,0.00002304,0.00001157,0.00024695,-0.00015530,-0.00002160,-0
 .00032135,0.00040582,0.00021773,-0.00005843,0.00002672,0.00000088,-0.0
 0000681,-0.00001503,-0.00000098,0.00000375,-0.00000050,0.00000065,-0.0
 0000201,0.00000481,0.00000018,0.00003473,0.00001497,-0.00000277,-0.000
 00304,0.00000469,-0.00000039,0.00000587,0.00000261,-0.00000004,0.00000
 108,-0.00000660,-0.00000016,-0.00000361,-0.00000006,-0.00000003,-0.000
 00026,-0.00001219,0.00000322,-0.00000077,0.00000239,-0.00000148,0.0005
 2805,-0.00004271,-0.00007290,-0.00081139,-0.00066236,-0.00018225,0.000
 10990,-0.00008638,0.00001382,0.00010998,-0.00019379,-0.00002097,0.0001
 9813,-0.00042014,0.00017160,-0.00116304,0.00202260,-0.00059657,-0.0001
 3712,0.00002413,-0.00000042,0.00002929,0.00014838,0.00006692,0.0002505
 6,0.00003011,-0.00015256,-0.00002418,-0.00003118,-0.00014580,-0.017058
 09,-0.00979449,0.01157343,-0.07776956,-0.08479694,0.04625418,0.0000015
 5,0.00000067,0.00000243,0.00000749,-0.00000810,-0.00000645,-0.00003992
 ,-0.00002211,-0.00001339,0.00031040,-0.00006278,-0.00004152,-0.0000007
 8,0.00000005,-0.00000009,0.00000063,-0.00000008,0.00000019,0.00000052,
 -0.00000005,0.00000013,-0.00000014,0.00000037,0.00000038,-0.00000136,0
 .00000074,-0.00000055,0.00000110,0.00000116,-0.00000005,0.00000034,-0.
 00000043,0.00000007,0.00000007,0.00000103,0.00000109,-0.00000011,-0.00
 000042,-0.00000037,0.00003636,-0.00003177,-0.00004628,-0.00000668,-0.0
 0000105,0.00000332,-0.00000729,0.00001536,0.00001707,-0.00002350,-0.00
 000042,-0.00000121,-0.00003427,0.00026137,0.00023758,0.00170744,-0.001
 90717,0.00314724,0.00038045,0.00079306,-0.00093249,0.08456890,0.088719
 68,-0.00001368,-0.00000410,0.00000453,0.00001101,0.00002957,0.00000188
 ,0.00004896,-0.00008956,0.00004357,-0.00006625,0.00007648,0.00020266,0
 .00001816,-0.00001160,0.00000009,0.00000318,0.00000532,-0.00000390,-0.
 00000206,0.00000035,0.00000297,-0.00000099,-0.00000095,-0.00000063,-0.
 00001022,-0.00000229,0.00000107,0.00000078,-0.00000216,0.00000034,-0.0
 0000240,-0.00000035,-0.00000014,-0.00000060,0.00000223,0.00000013,0.00
 000137,-0.00000004,-0.00000019,-0.00000002,0.00000334,-0.00000137,0.00
 000063,-0.00000095,0.00000016,-0.00016377,-0.00016517,0.00001823,-0.00
 005603,-0.00009754,0.00011162,-0.00013827,0.00001331,0.00000824,-0.000
 15073,0.00016738,0.00000737,0.00053104,0.00043348,0.00004700,-0.000401
 57,-0.00121875,0.00103194,0.00010226,-0.00003531,-0.00001313,0.0000125
 2,-0.00006594,-0.00006938,-0.00014638,-0.00023818,0.00004235,-0.000086
 11,0.00046401,0.00033708,0.02048957,0.00875087,-0.01379182,0.10287742,
 0.04702054,-0.11210407,-0.00000187,-0.00000180,-0.00000419,0.00001060,
 -0.00000496,-0.00001431,-0.00002494,-0.00001854,-0.00001145,0.00005889
 ,0.00005507,-0.00032315,-0.00000005,0.00000033,-0.00000030,-0.00000026
 ,-0.00000002,-0.00000007,-0.00000014,0.00000013,-0.00000003,-0.0000000
 7,-0.00000011,-0.00000022,0.00000058,-0.00000023,-0.00000066,-0.000000
 74,-0.00000021,-0.00000023,0.00000004,0.00000033,0.00000058,-0.0000002
 0,-0.00000030,-0.00000023,-0.00000023,0.00000016,0.00000038,0.00003007
 ,-0.00000488,-0.00002984,-0.00000660,-0.00000727,0.00000451,0.00001476
 ,-0.00003620,-0.00001278,-0.00001282,0.00000946,0.00002118,-0.00035942
 ,-0.00018144,-0.00043608,-0.00246155,0.00313519,-0.00250668,0.00036755
 ,-0.00060080,0.00072630,-0.11203236,-0.05460765,0.12085825,-0.00010279
 ,0.00003973,0.00000109,0.00010684,-0.00009227,0.00000206,-0.00010350,-
 0.00004168,0.00001638,-0.00014103,-0.00039287,0.00037476,0.00006566,-0
 .00006098,0.00000058,0.00000217,0.00001328,0.00000282,-0.00002849,0.00
 001348,-0.00000297,0.00000853,-0.00000182,-0.00000081,-0.00002598,-0.0
 0000180,0.00000333,0.00000908,-0.00000581,0.00000065,-0.00000860,-0.00
 000347,0.00000045,0.00000013,0.00000803,0.00000014,0.00000425,0.000001
 89,0.00000052,0.00000082,0.00000333,-0.00000388,0.00000168,-0.00000048
 ,-0.00000006,0.00007708,0.00013779,0.00003611,-0.00017766,0.00033278,-
 0.00022389,0.00001206,0.00010147,0.00002135,0.00001954,-0.00011441,-0.
 00006508,-0.00049886,0.00000354,0.00013631,0.00052148,-0.00080133,0.00
 045484,-0.00008370,0.00003653,0.00002020,0.00000408,0.00006158,0.00002
 922,0.00010182,0.00007739,-0.00001677,-0.00001498,-0.00015501,-0.00015
 313,-0.00609464,-0.00280258,-0.00632321,-0.14526403,-0.07259307,-0.105
 36240,0.00000883,0.00000649,-0.00000333,-0.00003176,0.00001034,0.00001
 195,-0.00002413,0.00000126,-0.00001979,-0.00019242,-0.00075822,0.00032
 210,-0.00000107,0.00000087,-0.00000064,0.00000015,-0.00000006,-0.00000
 043,0.00000003,0.00000030,-0.00000033,0.00000126,0.00000019,-0.0000006
 3,0.00000114,-0.00000045,0.00000099,-0.00000049,0.00000028,0.00000070,
 -0.00000075,-0.00000066,-0.00000037,0.00000035,-0.00000004,-0.00000043
 ,0.00000008,-0.00000006,0.00000013,-0.00002061,0.00000482,0.00000406,-
 0.00000250,0.00000472,-0.00000576,-0.00000656,0.00001730,0.00000647,0.
 00000767,-0.00000234,-0.00000853,0.00020155,0.00010597,0.00013071,0.00
 036245,0.00032717,0.00039285,0.00060927,0.00127564,-0.00107579,-0.0151
 1712,-0.01197766,-0.01840168,0.15403235,0.00031943,-0.00007497,0.00000
 914,-0.00031703,0.00014096,-0.00000522,0.00022633,-0.00001355,-0.00001
 647,-0.00055562,-0.00056975,0.00038301,-0.00026000,0.00018861,-0.00000
 046,-0.00001734,-0.00005922,-0.00000977,0.00006800,-0.00002545,0.00000
 802,-0.00000916,0.00000525,-0.00000079,0.00011352,0.00002942,-0.000006
 60,-0.00002387,0.00002714,0.00000042,0.00003394,0.00001348,0.00000076,
 0.00000370,-0.00003550,0.00000094,-0.00002206,-0.00000424,0.00000117,-
 0.00000847,-0.00003595,0.00000330,-0.00000112,0.00000553,-0.00000472,0
 .00011244,-0.00022261,0.00006311,-0.00006824,-0.00027278,-0.00008279,-
 0.00006764,0.00002158,0.00004162,-0.00001473,0.00010947,0.00005204,0.0
 0021868,0.00003634,-0.00016427,-0.00085753,0.00250419,-0.00049551,0.00
 001484,-0.00001819,0.00000673,-0.00001431,-0.00000052,0.00000408,0.000
 00529,0.00001477,-0.00001608,-0.00003777,-0.00006957,-0.00010046,0.015
 82449,0.01043062,0.01676476,-0.07289104,-0.10508154,-0.08166525,-0.000
 00470,-0.00000641,-0.00000054,0.00000625,-0.00001111,-0.00001079,0.000
 02081,0.00000029,0.00001842,-0.00072318,-0.00058760,0.00061689,0.00000
 146,-0.00000291,-0.00000272,0.00000169,-0.00000016,-0.00000077,0.00000
 142,-0.00000115,-0.00000056,-0.00000248,0.00000067,-0.00000016,-0.0000
 0356,0.00000116,-0.00000068,0.00000320,0.00000310,0.00000030,-0.000001
 35,-0.00000024,-0.00000230,-0.00000032,0.00000255,0.00000330,0.0000024
 5,-0.00000103,-0.00000064,-0.00000054,0.00003543,-0.00007244,0.0000024
 8,0.00000272,0.00000035,-0.00000277,0.00000061,0.00000194,0.00000688,-
 0.00000436,0.00000159,0.00000464,-0.00006771,0.00009257,-0.00045976,0.
 00083338,-0.00111178,0.00148170,-0.00281326,0.00388721,-0.00575175,-0.
 00574430,-0.00796976,0.08024526,0.11175520,-0.00009561,-0.00001286,-0.
 00000166,0.00006507,0.00013310,0.00003312,0.00034380,-0.00050002,0.000
 03089,-0.00055702,0.00114208,0.00049778,0.00014070,-0.00005405,-0.0000
 0069,0.00001571,0.00003744,-0.00000123,0.00000897,-0.00000912,0.000000
 71,-0.00001322,-0.00000634,-0.00000002,-0.00007718,-0.00003115,0.00000
 412,0.00000045,-0.00001860,0.00000060,-0.00001834,-0.00000815,-0.00000
 015,-0.00000507,0.00002392,-0.00000020,0.00001584,0.,-0.00000052,0.000
 00737,0.00003537,-0.00000123,0.00000160,-0.00000557,0.00000427,0.00054
 266,-0.00025016,-0.00002836,-0.00136157,-0.00039502,0.00007542,0.00003
 749,0.00003419,-0.00003828,0.00004096,0.00003627,0.00001542,0.00020567
 ,0.00008509,0.00008817,0.00120231,0.00014231,0.00144286,-0.00003524,0.
 00005584,0.00001312,0.00002504,0.00005017,-0.00000709,0.00006102,-0.00
 003092,0.00003710,0.00003925,-0.00008994,0.00009091,-0.01402785,-0.012
 05088,-0.01748922,-0.10586528,-0.07951243,-0.16680079,-0.00000974,-0.0
 0000906,-0.00000096,0.00005845,-0.00001785,-0.00001427,-0.00013696,-0.
 00009270,-0.00007363,0.00064507,0.00029424,-0.00064359,0.00000329,0.00
 000025,-0.00000008,-0.00000317,0.00000073,-0.00000018,-0.00000270,0.00
 000033,-0.00000009,0.00000014,-0.00000188,-0.00000050,0.00000405,0.000
 00018,-0.00000448,-0.00000579,-0.00000280,-0.00000158,0.00000074,0.000
 00225,0.00000457,-0.00000032,-0.00000426,-0.00000255,-0.00000211,0.000
 00243,0.00000060,0.00011693,-0.00009770,-0.00004056,-0.00000705,-0.000
 00276,-0.00000044,-0.00000067,0.00000790,-0.00000524,-0.00000195,0.000
 00095,0.00000236,-0.00000438,0.00008928,-0.00016073,0.00014782,-0.0005
 2393,0.00065636,-0.00089326,0.00393435,-0.00221681,0.00962856,0.007576
 84,0.01251028,0.11748453,0.08507218,0.18053790,0.00018564,-0.00000574,
 0.00000160,-0.00018606,-0.00002485,0.00000399,0.00023123,-0.00003531,0
 .00000474,-0.00036305,0.00007549,0.00000992,-0.00018108,0.00006883,0.0
 0000257,-0.00001980,-0.00004539,-0.00000004,-0.00000342,0.00000583,-0.
 00000004,0.00000447,0.00001286,0.00000007,0.00010609,0.00004740,-0.000
 00559,-0.00000451,0.00001780,-0.00000113,0.00001995,0.00000949,0.,0.00
 000476,-0.00002493,-0.00000002,-0.00001523,-0.00000004,0.00000058,-0.0
 0000596,-0.00004421,0.00000437,-0.00000112,0.00000754,-0.00000547,0.00
 047886,0.00008764,0.00002356,-0.00091193,-0.00050370,-0.00041431,-0.00
 005780,0.00007325,0.00011619,0.00003633,0.00005244,0.00006928,0.000578
 24,-0.00014448,0.00004231,0.00049571,0.00209023,-0.00138225,-0.0000000
 3,0.00000786,-0.00000401,-0.00000731,0.00000286,0.00001908,0.00004457,
 0.00000875,-0.00003061,-0.00008301,-0.00006526,-0.00007812,-0.00532818
 ,0.00532022,0.00454662,-0.11520832,0.10155390,0.05471221,0.00000673,0.
 00000546,-0.00000324,-0.00001340,-0.00000277,-0.00000064,-0.00000835,0
 .00000543,-0.00000396,0.00010564,-0.00005110,-0.00005611,-0.00000368,0
 .00000033,0.00000012,0.00000287,-0.00000071,0.00000045,0.00000268,-0.0
 0000021,0.00000012,-0.00000028,0.00000191,0.00000062,-0.00000458,0.000
 00103,0.00000144,0.00000518,0.00000401,0.00000112,-0.00000028,-0.00000
 260,-0.00000269,0.00000040,0.00000466,0.00000323,0.00000101,-0.0000023
 9,-0.00000068,0.00000563,0.00000196,0.00000277,-0.00000229,0.00000271,
 -0.00001178,-0.00000454,0.00000226,0.00000154,-0.00001941,0.00000242,0
 .00000294,-0.00007490,0.00016953,0.00009372,0.00041406,-0.00006442,-0.
 00010106,-0.00007202,-0.00026624,0.00004961,-0.01221264,0.02092568,0.0
 0996265,0.01178128,-0.01660256,-0.00771905,0.12028188,-0.00054524,0.00
 011529,-0.00000017,0.00057081,-0.00024753,0.00001166,-0.00067890,0.000
 13572,-0.00000748,0.00065946,-0.00030931,0.00005506,0.00042984,-0.0002
 8949,0.00000130,0.00002962,0.00009505,-0.00000273,-0.00009939,0.000037
 74,-0.00000078,0.00001601,-0.00001296,-0.00000215,-0.00019765,-0.00006
 023,0.00001484,0.00003719,-0.00004055,0.00000285,-0.00005278,-0.000021
 97,0.00000004,-0.00000589,0.00005590,0.,0.00003417,0.00000602,-0.00000
 128,0.00001118,0.00006486,-0.00001323,0.00000336,-0.00001140,0.0000073
 8,-0.00085737,0.00021463,0.00004913,0.00155604,0.00140887,0.00037017,0
 .00018704,-0.00001954,-0.00020586,0.00008190,-0.00033339,-0.00017518,-
 0.00107263,-0.00053573,0.00033691,0.00178098,-0.00363202,0.00331764,0.
 00000049,0.00000159,-0.00003610,0.00002175,-0.00005287,-0.00000413,-0.
 00006385,0.00010041,-0.00001509,0.00013249,0.00009884,-0.00003384,0.00
 881967,-0.01475645,-0.01029555,0.10157135,-0.20540754,-0.08473562,0.00
 000826,0.00000948,-0.00000574,-0.00003767,0.00002015,-0.00001222,0.000
 00358,0.00002036,-0.00002217,0.00008922,-0.00018708,-0.00009998,-0.000
 00110,0.00000354,-0.00000131,-0.00000245,0.00000039,-0.00000083,-0.000
 00256,0.00000160,-0.00000030,0.00000370,-0.00000147,-0.00000155,0.0000
 0780,-0.00000280,0.00000193,-0.00000650,-0.00000503,-0.00000022,-0.000
 00010,0.00000238,0.00000242,-0.00000028,-0.00000537,-0.00000508,-0.000
 00146,0.00000223,0.00000142,-0.00005929,0.00000736,0.00003121,0.000009
 65,0.00000337,-0.00000483,0.00000261,0.00000370,0.00000953,0.00000982,
 0.00000272,-0.00000335,0.00001895,0.00003732,0.00006248,-0.00064826,0.
 00032877,-0.00032549,0.00015991,0.00073071,-0.00004837,-0.00621621,0.0
 1149810,0.00519950,0.00697562,-0.01043838,-0.00502953,-0.11268286,0.22
 136402,0.00011030,-0.00000255,-0.00000227,-0.00011782,0.00001160,0.000
 01368,0.00024648,-0.00008941,0.00002260,-0.00037182,0.00022363,0.00001
 589,-0.00008662,0.00002547,-0.00000306,-0.00001365,-0.00002282,0.00000
 543,-0.00000165,0.00000511,-0.00000337,0.00000398,0.00000585,0.0000013
 7,0.00005627,0.00003308,-0.00000351,-0.00000338,0.00000350,-0.00000135
 ,0.00000856,0.00000537,-0.00000043,0.00000235,-0.00001097,-0.00000039,
 -0.00000686,0.00000084,0.00000023,-0.00000230,-0.00002802,0.00000408,0
 .00000051,0.00000527,-0.00000335,0.00049811,0.00000697,-0.00006739,-0.
 00134346,-0.00045616,-0.00040812,-0.00024675,0.00027319,0.00033354,-0.
 00010186,0.00025193,0.00013017,0.00057060,0.00057048,-0.00016913,-0.00
 211321,0.00554292,-0.00270778,0.00000779,0.00001954,0.00003482,-0.0000
 1625,0.00001158,-0.00000798,-0.00001092,-0.00008414,0.00001674,-0.0000
 6613,-0.00002204,0.00004799,-0.01196656,0.01770632,0.01133078,0.055638
 24,-0.08620214,-0.09645062,0.00000322,0.00000338,0.00000276,-0.0000012
 8,-0.00000697,0.00000425,-0.00002260,-0.00000536,-0.00002233,0.0001048
 6,-0.00011921,-0.00003175,-0.00000242,0.00000049,0.00000192,0.00000054
 ,-0.00000051,0.00000075,0.00000138,0.,0.00000032,0.00000037,0.00000132
 ,0.00000067,-0.00000280,0.00000137,0.00000016,0.00000284,0.00000255,0.
 00000113,-0.00000017,-0.00000222,-0.00000105,0.00000068,0.00000289,0.0
 0000194,-0.00000030,-0.00000132,-0.00000078,0.00002417,-0.00000692,0.0
 0002167,-0.00001242,-0.00000334,-0.00000206,-0.00000109,-0.00000773,-0
 .00000587,-0.00000875,-0.00000144,0.00000001,-0.00002163,-0.00009593,-
 0.00008015,0.00068595,-0.00052101,0.00103387,-0.00003652,-0.00089582,0
 .00090787,0.00625403,-0.01245093,-0.00665788,0.01221459,-0.01529236,-0
 .00851144,-0.05985660,0.09161469,0.10120744||-0.00001144,0.00000689,0.
 00000298,0.00001481,-0.00000988,0.00000236,-0.00001751,0.00000796,0.00
 000178,0.00001090,-0.00000499,-0.00000501,0.00001816,-0.00001776,0.000
 00189,0.00000372,0.00002059,-0.00000729,-0.00001128,-0.00000977,0.0000
 0110,-0.00000050,0.00001142,-0.00000068,-0.00001235,-0.00001490,0.0000
 0138,0.00000298,0.00000008,-0.00000359,0.00000055,-0.00000301,-0.00000
 339,-0.00000104,0.00000205,-0.00000132,0.00000529,0.00000194,0.0000004
 8,0.00000254,0.00001105,0.00000531,-0.00000040,-0.00000288,0.00000367,
 0.00000269,0.00000781,0.00001652,-0.00002584,-0.00004300,-0.00002268,0
 .00001801,0.00001916,-0.00000187,-0.00002624,-0.00000562,0.00000150,0.
 00002645,-0.00000469,-0.00001331,0.00000255,0.00004217,0.00003501,0.00
 000189,-0.00000278,0.00000256,-0.00000239,0.00000116,0.00000009,0.0000
 0251,-0.00000123,-0.00000289,-0.00000633,-0.00000564,0.00000416,0.0000
 0265,-0.00000765,-0.00001776,-0.00000048,0.00000279,-0.00000574,0.0000
 0017,-0.00000089,-0.00000046,-0.00000094,0.00000187,-0.00000026,0.0000
 0196,-0.00000104,0.00000271,-0.00000161,-0.00000024,-0.00000113,-0.000
 00096,0.00000063,-0.00000435,0.,0.00000084,-0.00000385,0.00000009,0.00
 000053,-0.00000124,-0.00000024,-0.00000017,0.00000029,0.00000065,0.000
 00068,0.00000447,-0.00000079,0.00000052,0.00000383,-0.00000003,-0.0000
 0225,0.00000275,-0.00000009,-0.00000100,0.00000525,-0.00000005,-0.0000
 0216,0.00000261,-0.00000079,-0.00000118,0.00000630,0.00000159,-0.00000
 060,0.00000265,0.00000028,-0.00000204,0.00000025,-0.00000007,0.0000001
 0,-0.00000254,-0.00000087,0.00000183,-0.00000417,0.00000183,0.00000356
 ,0.00000082,0.00000019,0.00000362,0.00000014,0.00000058,-0.00000219,-0
 .00000239,-0.00000029,-0.00000251,-0.00000149,-0.00000049,0.00000084,-
 0.00000546|||@


 WAR ES EIN GOTT DER DIESE ZEICHEN SCHRIEB?
          - LUDWIG BOLTZMANN, QUOTING GOETHE, ABOUT MAXWELL'S EQUATIONS.
 Job cpu time:  0 days  6 hours  1 minutes 14.0 seconds.
 File lengths (MBytes):  RWF=   1299 Int=      0 D2E=      0 Chk=     17 Scr=      1
 Normal termination of Gaussian 09 at Wed Oct 25 10:14:58 2023.
