 Entering Gaussian System, Link 0=g16
 Initial command:
 /home/zcwang/Gaussian16_AVX2/g16/l1.exe "/home/zcwang/Gaussian16_AVX2/g16/tmp/Gau-3336.inp" -scrdir="/home/zcwang/Gaussian16_AVX2/g16/tmp/"
 Default is to use a total of   4 processors:
                                4 via shared-memory
                                1 via Linda
 Entering Link 1 = /home/zcwang/Gaussian16_AVX2/g16/l1.exe PID=      3339.
  
 Copyright (c) 1988-2021, Gaussian, Inc.  All Rights Reserved.
  
 This is part of the Gaussian(R) 16 program.  It is based on
 the Gaussian(R) 09 system (copyright 2009, Gaussian, Inc.),
 the Gaussian(R) 03 system (copyright 2003, Gaussian, Inc.),
 the Gaussian(R) 98 system (copyright 1998, Gaussian, Inc.),
 the Gaussian(R) 94 system (copyright 1995, Gaussian, Inc.),
 the Gaussian 92(TM) system (copyright 1992, Gaussian, Inc.),
 the Gaussian 90(TM) system (copyright 1990, Gaussian, Inc.),
 the Gaussian 88(TM) system (copyright 1988, Gaussian, Inc.),
 the Gaussian 86(TM) system (copyright 1986, Carnegie Mellon
 University), and the Gaussian 82(TM) system (copyright 1983,
 Carnegie Mellon University). Gaussian is a federally registered
 trademark of Gaussian, Inc.
  
 This software contains proprietary and confidential information,
 including trade secrets, belonging to Gaussian, Inc.
  
 This software is provided under written license and may be
 used, copied, transmitted, or stored only in accord with that
 written license.
  
 The following legend is applicable only to US Government
 contracts under FAR:
  
                    RESTRICTED RIGHTS LEGEND
  
 Use, reproduction and disclosure by the US Government is
 subject to restrictions as set forth in subparagraphs (a)
 and (c) of the Commercial Computer Software - Restricted
 Rights clause in FAR 52.227-19.
  
 Gaussian, Inc.
 340 Quinnipiac St., Bldg. 40, Wallingford CT 06492
  
  
 ---------------------------------------------------------------
 Warning -- This program may not be used in any manner that
 competes with the business of Gaussian, Inc. or will provide
 assistance to any competitor of Gaussian, Inc.  The licensee
 of this program is prohibited from giving any competitor of
 Gaussian, Inc. access to this program.  By using this program,
 the user acknowledges that Gaussian, Inc. is engaged in the
 business of creating and licensing software in the field of
 computational chemistry and represents and warrants to the
 licensee that it is not a competitor of Gaussian, Inc. and that
 it will not use this program in any manner prohibited above.
 ---------------------------------------------------------------
  

 Cite this work as:
 Gaussian 16, Revision C.02,
 M. J. Frisch, G. W. Trucks, H. B. Schlegel, G. E. Scuseria, 
 M. A. Robb, J. R. Cheeseman, G. Scalmani, V. Barone, 
 G. A. Petersson, H. Nakatsuji, X. Li, M. Caricato, A. V. Marenich, 
 J. Bloino, B. G. Janesko, R. Gomperts, B. Mennucci, H. P. Hratchian, 
 J. V. Ortiz, A. F. Izmaylov, J. L. Sonnenberg, D. Williams-Young, 
 F. Ding, F. Lipparini, F. Egidi, J. Goings, B. Peng, A. Petrone, 
 T. Henderson, D. Ranasinghe, V. G. Zakrzewski, J. Gao, N. Rega, 
 G. Zheng, W. Liang, M. Hada, M. Ehara, K. Toyota, R. Fukuda, 
 J. Hasegawa, M. Ishida, T. Nakajima, Y. Honda, O. Kitao, H. Nakai, 
 T. Vreven, K. Throssell, J. A. Montgomery, Jr., J. E. Peralta, 
 F. Ogliaro, M. J. Bearpark, J. J. Heyd, E. N. Brothers, K. N. Kudin, 
 V. N. Staroverov, T. A. Keith, R. Kobayashi, J. Normand, 
 K. Raghavachari, A. P. Rendell, J. C. Burant, S. S. Iyengar, 
 J. Tomasi, M. Cossi, J. M. Millam, M. Klene, C. Adamo, R. Cammi, 
 J. W. Ochterski, R. L. Martin, K. Morokuma, O. Farkas, 
 J. B. Foresman, and D. J. Fox, Gaussian, Inc., Wallingford CT, 2019.
 
 ******************************************
 Gaussian 16:  ES64L-G16RevC.02  7-Dec-2021
                 1-Nov-2023 
 ******************************************
 %chk=/home/zcwang/Gaussian16_AVX2/Cal/A-3/linux-A2-f.chk
 %nprocshared=16
 Will use up to   16 processors via shared memory.
 %mem=3500MB
 -------------------------------------------------------------
 # td=(nstates=70) b3lyp/6-31g(d,p) scrf(smd, solvent=ethanol)
 -------------------------------------------------------------
 1/38=1,172=1/1;
 2/12=2,17=6,18=5,40=1/2;
 3/5=1,6=6,7=101,11=9,25=1,30=1,70=32201,72=4,74=-5/1,2,3,8;
 4//1;
 5/5=2,38=5,53=4/2;
 8/6=1,10=2,108=70/1;
 9/41=70,42=1,70=2/14;
 6/7=2,8=2,9=2,10=2/1;
 99/5=1,9=1/99;
 ---
 A-3
 ---
 Symbolic Z-matrix:
 Charge =  1 Multiplicity = 1
 C                    -2.42804   1.06652  -0.25318 
 C                    -1.1637    0.47934  -0.18892 
 C                     0.04181   1.17392  -0.25682 
 C                     1.28645   0.54133  -0.18105 
 C                    -3.63236   0.36093  -0.1721 
 S                    -3.73168  -1.38124   0.07285 
 C                    -5.49238  -1.31615   0.07935 
 C                    -5.93741   0.00252  -0.10246 
 N                    -4.87873   0.90962  -0.26159 
 C                    -6.38635  -2.37119   0.2407 
 C                    -7.75121  -2.08525   0.22361 
 C                    -8.20176  -0.77041   0.05133 
 C                    -7.30699   0.28573  -0.11153 
 C                    -5.10928   2.34993  -0.47364 
 C                    -5.16458   3.14278   0.83325 
 C                     2.49951   1.22923  -0.20369 
 C                     3.82211   0.76406  -0.12709 
 S                     5.094     1.94419   0.17203 
 C                     6.32618   0.69371   0.14037 
 C                     5.74078  -0.56156  -0.08827 
 N                     4.34645  -0.48864  -0.25638 
 C                     7.70209   0.835     0.30955 
 C                     8.49306  -0.31093   0.25083 
 C                     7.91391  -1.56717   0.0283 
 C                     6.53827  -1.70957  -0.14233 
 C                     3.57345  -1.67863  -0.65124 
 C                     3.11126  -2.52211   0.53872 
 H                    -2.48023   2.14497  -0.35954 
 H                    -1.10176  -0.60405  -0.07596 
 H                     0.0149    2.25675  -0.37062 
 H                     1.27116  -0.53799  -0.0619 
 H                    -6.03096  -3.38737   0.37793 
 H                    -8.46785  -2.89048   0.34879 
 H                    -9.26727  -0.56388   0.04669 
 H                    -7.67556   1.29813  -0.23269 
 H                    -4.32099   2.71824  -1.13381 
 H                    -6.04347   2.44228  -1.03182 
 H                    -4.22182   3.06671   1.38368 
 H                    -5.35038   4.19921   0.61452 
 H                    -5.96892   2.78077   1.48096 
 H                     2.42607   2.31429  -0.22968 
 H                     8.14445   1.81075   0.48253 
 H                     9.56705  -0.22672   0.38161 
 H                     8.54404  -2.45003  -0.00972 
 H                     6.10878  -2.69179  -0.30376 
 H                     2.73549  -1.33414  -1.25947 
 H                     4.21609  -2.26429  -1.31381 
 H                     3.96372  -2.88406   1.12125 
 H                     2.46478  -1.9518    1.21298 
 H                     2.55269  -3.3918    0.17731 
 
                          Input orientation:                          
 ---------------------------------------------------------------------
 Center     Atomic      Atomic             Coordinates (Angstroms)
 Number     Number       Type             X           Y           Z
 ---------------------------------------------------------------------
      1          6           0       -2.428041    1.066524   -0.253176
      2          6           0       -1.163701    0.479343   -0.188922
      3          6           0        0.041805    1.173916   -0.256816
      4          6           0        1.286450    0.541332   -0.181046
      5          6           0       -3.632364    0.360929   -0.172103
      6         16           0       -3.731682   -1.381240    0.072853
      7          6           0       -5.492381   -1.316150    0.079346
      8          6           0       -5.937414    0.002523   -0.102460
      9          7           0       -4.878726    0.909623   -0.261587
     10          6           0       -6.386349   -2.371189    0.240698
     11          6           0       -7.751214   -2.085245    0.223608
     12          6           0       -8.201765   -0.770406    0.051330
     13          6           0       -7.306986    0.285734   -0.111525
     14          6           0       -5.109277    2.349928   -0.473641
     15          6           0       -5.164583    3.142776    0.833251
     16          6           0        2.499506    1.229230   -0.203687
     17          6           0        3.822110    0.764058   -0.127091
     18         16           0        5.094002    1.944187    0.172030
     19          6           0        6.326179    0.693711    0.140374
     20          6           0        5.740783   -0.561555   -0.088266
     21          7           0        4.346445   -0.488644   -0.256376
     22          6           0        7.702092    0.835001    0.309547
     23          6           0        8.493059   -0.310930    0.250826
     24          6           0        7.913914   -1.567173    0.028296
     25          6           0        6.538273   -1.709565   -0.142327
     26          6           0        3.573454   -1.678630   -0.651238
     27          6           0        3.111260   -2.522112    0.538719
     28          1           0       -2.480232    2.144966   -0.359543
     29          1           0       -1.101764   -0.604050   -0.075964
     30          1           0        0.014895    2.256753   -0.370616
     31          1           0        1.271155   -0.537990   -0.061902
     32          1           0       -6.030956   -3.387372    0.377927
     33          1           0       -8.467850   -2.890478    0.348789
     34          1           0       -9.267265   -0.563876    0.046694
     35          1           0       -7.675558    1.298131   -0.232690
     36          1           0       -4.320988    2.718242   -1.133807
     37          1           0       -6.043470    2.442277   -1.031819
     38          1           0       -4.221825    3.066705    1.383681
     39          1           0       -5.350379    4.199206    0.614515
     40          1           0       -5.968923    2.780771    1.480961
     41          1           0        2.426074    2.314290   -0.229676
     42          1           0        8.144449    1.810753    0.482525
     43          1           0        9.567045   -0.226720    0.381606
     44          1           0        8.544040   -2.450028   -0.009720
     45          1           0        6.108776   -2.691785   -0.303762
     46          1           0        2.735494   -1.334144   -1.259472
     47          1           0        4.216087   -2.264286   -1.313807
     48          1           0        3.963720   -2.884064    1.121248
     49          1           0        2.464779   -1.951800    1.212975
     50          1           0        2.552692   -3.391803    0.177306
 ---------------------------------------------------------------------
                    Distance matrix (angstroms):
                    1          2          3          4          5
     1  C    0.000000
     2  C    1.395516   0.000000
     3  C    2.472182   1.392941   0.000000
     4  C    3.752129   2.450948   1.398229   0.000000
     5  C    1.398153   2.471559   3.763993   4.922129   0.000000
     6  S    2.792369   3.181952   4.569104   5.379814   1.762107
     7  C    3.895881   4.693957   6.077882   7.033533   2.517039
     8  C    3.670220   4.798246   6.094838   7.244357   2.333787
     9  N    2.455717   3.740566   4.927626   6.176692   1.364731
    10  C    5.265927   5.965413   7.357748   8.217815   3.901193
    11  C    6.204606   7.081145   8.460738   9.420298   4.806795
    12  C    6.066541   7.152198   8.475364   9.581278   4.712671
    13  C    4.943056   6.146822   7.403695   8.597517   3.675890
    14  C    2.980731   4.375811   5.288068   6.652966   2.495659
    15  C    3.602750   4.913835   5.671960   7.029377   3.331232
    16  C    4.930481   3.739202   2.458897   1.394712   6.193123
    17  C    6.258736   4.994316   3.804671   2.545995   7.465502
    18  S    7.585000   6.436995   5.128540   4.073097   8.875505
    19  C    8.770988   7.500179   6.315197   5.052267   9.969000
    20  C    8.331118   6.983230   5.959750   4.589777   9.418805
    21  N    6.950699   5.594931   4.614546   3.229566   8.024355
    22  C   10.148392   8.886915   7.688669   6.441070  11.354586
    23  C   11.019157   9.699017   8.595706   7.269668  12.151385
    24  C   10.675749   9.307981   8.340561   6.957938  11.707872
    25  C    9.386892   8.007115   7.108563   5.713990  10.379291
    26  C    6.611525   5.226014   4.556877   3.221754   7.504211
    27  C    6.647500   5.273849   4.869810   3.637675   7.368423
    28  H    1.084931   2.129945   2.704471   4.097731   2.131978
    29  H    2.140381   1.091025   2.121702   2.650756   2.710049
    30  H    2.719995   2.140394   1.089133   2.143702   4.115344
    31  H    4.036719   2.641898   2.116581   1.085986   4.986451
    32  H    5.763374   6.242033   7.621461   8.324157   4.483920
    33  H    7.245655   8.061974   9.449883  10.353956   5.850205
    34  H    7.037266   8.173834   9.474747  10.613871   5.714477
    35  H    5.252666   6.563277   7.718400   8.994054   4.150836
    36  H    2.662129   3.984211   4.710416   6.090160   2.637423
    37  H    3.945923   5.326888   6.264179   7.620048   3.299175
    38  H    3.146059   4.303446   4.944939   6.258352   3.176343
    39  H    4.371115   5.657841   6.243977   7.619741   4.278167
    40  H    4.299270   5.583479   6.459931   7.772888   3.748035
    41  H    5.011976   4.031771   2.643091   2.108195   6.365815
    42  H   10.624155   9.426831   8.161190   7.005991  11.883764
    43  H   12.081288  10.769073   9.648811   8.335151  13.224081
    44  H   11.524408  10.141675   9.245649   7.851764  12.497706
    45  H    9.327630   7.934618   7.194024   5.807145  10.209124
    46  H    5.782554   4.431539   3.814662   2.603870   6.678717
    47  H    7.507574   6.142881   5.510272   4.211581   8.354246
    48  H    7.638769   6.270526   5.809275   4.538401   8.360815
    49  H    5.932922   4.587117   4.219146   3.089897   6.666507
    50  H    6.698485   5.378798   5.228652   4.147449   7.242928
                    6          7          8          9         10
     6  S    0.000000
     7  C    1.761914   0.000000
     8  C    2.609749   1.403569   0.000000
     9  N    2.583721   2.333854   1.403201   0.000000
    10  C    2.838209   1.392236   2.440043   3.645400   0.000000
    11  C    4.083502   2.390532   2.784774   4.178018   1.394601
    12  C    4.511676   2.763943   2.397573   3.736710   2.427777
    13  C    3.949126   2.428015   1.398577   2.511614   2.833880
    14  C    4.014728   3.727290   2.516723   1.473974   4.942685
    15  C    4.806052   4.534076   3.366602   2.503469   5.678701
    16  C    6.761563   8.392218   8.526235   7.385378   9.597860
    17  C    7.855066   9.546184   9.789221   8.703093  10.685396
    18  S    9.431914  11.077450  11.204354  10.035619  12.264813
    19  C   10.269886  11.988395  12.285456  11.214191  13.077157
    20  C    9.509229  11.259728  11.691821  10.722331  12.265819
    21  N    8.133957   9.879270  10.296732   9.330539  10.907975
    22  C   11.648989  13.370660  13.671097  12.593996  14.448826
    23  C   12.272796  14.022568  14.438200  13.437148  15.021370
    24  C   11.647165  13.408742  13.940600  13.033426  14.324422
    25  C   10.277455  12.039126  12.592680  11.714189  12.947212
    26  C    7.346956   9.102445   9.673885   8.848177  10.023615
    27  C    6.953019   8.699885   9.416124   8.732535   9.503482
    28  H    3.766593   4.609229   4.075323   2.699711   6.001141
    29  H    2.746387   4.450699   4.873617   4.073218   5.581209
    30  H    5.241040   6.580136   6.370514   5.076827   7.922593
    31  H    5.075195   6.809618   7.228919   6.321115   7.879692
    32  H    3.066643   2.160827   3.425042   4.494528   1.085248
    33  H    4.978476   3.377058   3.869908   5.262617   2.148020
    34  H    5.595663   3.849251   3.380971   4.639559   3.406420
    35  H    4.777713   3.420248   2.171798   2.823835   3.917916
    36  H    4.313822   4.372667   3.324401   2.083973   5.661916
    37  H    4.602602   3.957797   2.612921   2.073382   4.990623
    38  H    4.662909   4.746053   3.813276   2.791313   5.963411
    39  H    5.835662   5.543079   4.297768   3.436767   6.662062
    40  H    4.930553   4.356189   3.197949   2.779604   5.315561
    41  H    7.187936   8.716508   8.678040   7.438697   9.991685
    42  H   12.304436  13.996543  14.209531  13.075505  15.122540
    43  H   13.352318  15.101806  15.513708  14.504664  16.097496
    44  H   12.322438  14.082426  14.687958  13.839123  14.932697
    45  H    9.934484  11.688712  12.345465  11.562747  12.511090
    46  H    6.603156   8.336107   8.851254   8.000413   9.302365
    47  H    8.116011   9.853638  10.473747   9.690020  10.716322
    48  H    7.910551   9.641668  10.385678   9.720758  10.400112
    49  H    6.326258   8.062603   8.726202   8.018051   8.914240
    50  H    6.598987   8.309099   9.147766   8.597724   8.997340
                   11         12         13         14         15
    11  C    0.000000
    12  C    1.400528   0.000000
    13  C    2.435404   1.393766   0.000000
    14  C    5.209294   4.424428   3.036766   0.000000
    15  C    5.864685   5.014865   3.693938   1.529586   0.000000
    16  C   10.781725  10.889480   9.852206   7.695610   7.967130
    17  C   11.924066  12.122705  11.139381   9.077706   9.345652
    18  S   13.462487  13.570593  12.514606  10.231736  10.349512
    19  C   14.349304  14.601806  13.641594  11.571073  11.769265
    20  C   13.581343  13.944811  13.075271  11.240509  11.554145
    21  N   12.211997  12.555144  11.680030   9.874987  10.238855
    22  C   15.727043  15.986766  15.025026  12.924379  13.082485
    23  C   16.340910  16.702337  15.815459  13.879069  14.099592
    24  C   15.674909  16.135380  15.333904  13.608789  13.924032
    25  C   14.299108  14.771196  13.988330  12.339152  12.706447
    26  C   11.365685  11.831072  11.069507   9.573434  10.089745
    27  C   10.875821  11.458209  10.809564   9.609312  10.033309
    28  H    6.783657   6.434606   5.178398   2.639490   3.102277
    29  H    6.819008   7.103090   6.268793   4.994426   5.601060
    30  H    8.917314   8.766712   7.586962   5.126054   5.390856
    31  H    9.158529   9.476447   8.617743   7.015662   7.467802
    32  H    2.163016   3.415785   3.919123   5.872927   6.603087
    33  H    1.085190   2.157310   3.412890   6.278396   6.895392
    34  H    2.155058   1.085342   2.142327   5.103907   5.584795
    35  H    3.414845   2.153232   1.084193   2.783906   3.293014
    36  H    6.056609   5.351228   3.984763   1.092188   2.182017
    37  H    4.999094   4.019052   2.663474   1.092157   2.177528
    38  H    6.351767   5.686695   4.414483   2.179676   1.094327
    39  H    6.738779   5.757137   4.435167   2.159176   1.094719
    40  H    5.332505   4.431736   3.248328   2.178322   1.094321
    41  H   11.096782  11.070017   9.942910   7.539384   7.709363
    42  H   16.368199  16.554366  15.537871  13.299106  13.380121
    43  H   17.418415  17.780194  16.889012  14.925314  15.118808
    44  H   16.301006  16.829939  16.085701  14.479912  14.829579
    45  H   13.883275  14.443316  13.743553  12.300099  12.744549
    46  H   10.617661  11.029943  10.236855   8.702319   9.318450
    47  H   12.066979  12.581666  11.862938  10.438355  11.038258
    48  H   11.776398  12.394003  11.772687  10.595170  10.942196
    49  H   10.264656  10.794456  10.111788   8.872196   9.181833
    50  H   10.386516  11.070047  10.527153   9.596717  10.133475
                   16         17         18         19         20
    16  C    0.000000
    17  C    1.404113   0.000000
    18  S    2.717303   1.760650   0.000000
    19  C    3.879251   2.519295   1.755834   0.000000
    20  C    3.704876   2.332394   2.600927   1.403801   0.000000
    21  N    2.522905   1.364150   2.580899   2.339812   1.406327
    22  C    5.242683   3.905118   2.837488   1.393456   2.440360
    23  C    6.204946   4.807929   4.079871   2.390998   2.784389
    24  C    6.098319   4.711862   4.505798   2.764970   2.397364
    25  C    4.995190   3.673770   3.941401   2.429123   1.398871
    26  C    3.131983   2.510634   4.014304   3.719159   2.502421
    27  C    3.872722   3.427466   4.900363   4.564636   3.339354
    28  H    5.065635   6.456040   7.595519   8.939180   8.659326
    29  H    4.043065   5.110662   6.703919   7.543562   6.842690
    30  H    2.693875   4.096624   5.117567   6.522003   6.388143
    31  H    2.156853   2.864777   4.563999   5.206848   4.469768
    32  H    9.716999  10.703846  12.338258  13.015777  12.115132
    33  H   11.728603  12.830636  14.398926  15.223441  14.404866
    34  H   11.905243  13.157711  14.579166  15.644354  15.008655
    35  H   10.175339  11.510550  12.792296  14.019741  13.545387
    36  H    7.042827   8.434593   9.536583  10.912581  10.634353
    37  H    8.668317  10.048115  11.213413  12.547499  12.197619
    38  H    7.146492   8.502324   9.461119  10.882890  10.704413
    39  H    8.432728   9.822666  10.694204  12.200628  12.090187
    40  H    8.772663  10.125082  11.171458  12.542828  12.278063
    41  H    1.087852   2.088698   2.723267   4.239579   4.390647
    42  H    5.716156   4.488855   3.069110   2.161239   3.425092
    43  H    7.239645   5.851896   4.976432   3.377662   3.869519
    44  H    7.078909   5.713208   5.589716   3.850264   3.380939
    45  H    5.330216   4.147638   4.769526   3.421418   2.172496
    46  H    2.782312   2.620205   4.284765   4.354857   3.316682
    47  H    4.047675   3.276336   4.548592   3.913678   2.593442
    48  H    4.562736   3.858393   5.048818   4.398159   3.164637
    49  H    3.482397   3.318736   4.814052   4.802042   3.789223
    50  H    4.637017   4.356060   5.910252   5.561654   4.271388
                   21         22         23         24         25
    21  N    0.000000
    22  C    3.651393   0.000000
    23  C    4.181297   1.393641   0.000000
    24  C    3.737793   2.427841   1.401098   0.000000
    25  C    2.511526   2.834340   2.435557   1.393476   0.000000
    26  C    1.472922   4.928194   5.185252   4.394745   3.008338
    27  C    2.508555   5.691965   5.825459   4.923203   3.587266
    28  H    7.317791  10.288023  11.261309  11.043943   9.810098
    29  H    5.452417   8.929018   9.604860   9.067576   7.719892
    30  H    5.129579   7.847101   8.880228   8.784990   7.637948
    31  H    3.081828   6.586352   7.232237   6.722619   5.396442
    32  H   10.793304  14.367662  14.846806  14.067507  12.691384
    33  H   13.051482  16.593606  17.156226  16.438249  15.060527
    34  H   13.617291  17.028947  17.763298  17.210458  15.848134
    35  H   12.154081  15.394175  16.255677  15.852751  14.528847
    36  H    9.283232  12.254971  13.239822  13.015686  11.769115
    37  H   10.823213  13.904067  14.850455  14.560498  13.278902
    38  H    9.420485  12.178426  13.204547  13.060860  11.871022
    39  H   10.805683  13.482503  14.564147  14.475367  13.297610
    40  H   10.959664  13.858387  14.839837  14.620124  13.387611
    41  H    3.397790   5.505944   6.628044   6.726715   5.754061
    42  H    4.500893   1.085216   2.162580   3.416117   3.919551
    43  H    5.265956   2.147206   1.085192   2.157425   3.412740
    44  H    4.639792   3.406204   2.155510   1.085328   2.142188
    45  H    2.821681   3.918293   3.414798   2.152565   1.084106
    46  H    2.077555   5.642172   6.039662   5.341225   3.981216
    47  H    2.070763   4.938936   4.955418   3.995138   2.659441
    48  H    2.789689   5.335328   5.281436   4.304971   3.099095
    49  H    2.800087   6.000991   6.321261   5.589676   4.299869
    50  H    3.440053   6.663308   6.692170   5.665173   4.337850
                   26         27         28         29         30
    26  C    0.000000
    27  C    1.530060   0.000000
    28  H    7.166037   7.338479   0.000000
    29  H    4.831493   4.669729   3.088313   0.000000
    30  H    5.313128   5.766448   2.497654   3.085116   0.000000
    31  H    2.636087   2.771908   4.621661   2.373880   3.079624
    32  H    9.809367   9.184478   6.615003   5.678894   8.304744
    33  H   12.143378  11.586525   7.855508   7.724467   9.948291
    34  H   12.907899  12.542115   7.318925   8.166521   9.710231
    35  H   11.643735  11.469297   5.265419   6.845263   7.751196
    36  H    9.049175   9.246457   2.077622   4.745530   4.426659
    37  H   10.469572  10.531896   3.638271   5.883386   6.097163
    38  H    9.350159   9.258670   2.630889   5.033864   4.656541
    39  H   10.760385  10.806535   3.661480   6.449710   5.790490
    40  H   10.746604  10.557372   3.995331   6.129459   6.285619
    41  H    4.175836   4.944764   4.910944   4.581045   2.415980
    42  H    5.861332   6.641526  10.663237   9.572651   8.186355
    43  H    6.252835   6.853515  12.300857  10.685281   9.898336
    44  H    5.070831   5.460868  11.948679   9.821077   9.748351
    45  H    2.752286   3.118279   9.857400   7.510154   7.850343
    46  H    1.091236   2.187683   6.333867   4.081455   4.591978
    47  H    1.093146   2.172319   8.074207   5.706854   6.243350
    48  H    2.178781   1.094092   8.307130   5.682509   6.651833
    49  H    2.186109   1.094447   6.611311   4.024677   5.120704
    50  H    2.159491   1.094979   7.501623   4.603342   6.216656
                   31         32         33         34         35
    31  H    0.000000
    32  H    7.850685   0.000000
    33  H   10.027516   2.487208   0.000000
    34  H   10.539011   4.307614   2.478589   0.000000
    35  H    9.134779   5.003150   4.302359   2.465493   0.000000
    36  H    6.559275   6.518271   7.131080   6.052399   3.752581
    37  H    7.957793   5.997695   6.018469   4.537951   2.147414
    38  H    6.727285   6.777876   7.388353   6.358075   4.203425
    39  H    8.169656   7.620717   7.749378   6.192848   3.813194
    40  H    8.112542   6.266300   6.299961   4.911501   2.836798
    41  H    3.081799  10.217607  12.087258  12.045514  10.152613
    42  H    7.283898  15.098793  17.265223  17.578299  15.844461
    43  H    8.313566  15.915005  18.230582  18.840304  17.320794
    44  H    7.520204  14.610250  17.021367  17.910984  16.648537
    45  H    5.300934  12.178737  14.592578  15.526540  14.350343
    46  H    2.052395   9.151364  11.424692  12.098165  10.787639
    47  H    3.635930  10.446300  12.807755  13.658080  12.460772
    48  H    3.762155  10.034909  12.455548  13.475790  12.441732
    49  H    2.246978   8.656540  11.006830  11.871285  10.746089
    50  H    3.137484   8.585993  11.033271  12.154243  11.259693
                   36         37         38         39         40
    36  H    0.000000
    37  H    1.747427   0.000000
    38  H    2.543424   3.089165   0.000000
    39  H    2.511878   2.505512   1.774207   0.000000
    40  H    3.091377   2.536572   1.773012   1.773495   0.000000
    41  H    6.819346   8.508407   6.882123   8.046042   8.580202
    42  H   12.602507  14.282475  12.462513  13.705200  14.181857
    43  H   14.277491  15.899984  14.212098  15.561896  15.862531
    44  H   13.909836  15.419948  13.976524  15.416123  15.498693
    45  H   11.778682  13.212333  11.946924  13.403030  13.379272
    46  H    8.138278   9.559466   8.646272   9.975527  10.010463
    47  H    9.886336  11.291136  10.338968  11.705231  11.704604
    48  H   10.252195  11.539041  10.123422  11.712469  11.440155
    49  H    8.565239   9.835513   8.362129   9.963419   9.674522
    50  H    9.289733  10.459086   9.437253  10.966909  10.602741
                   41         42         43         44         45
    41  H    0.000000
    42  H    5.784513   0.000000
    43  H    7.604200   2.487018   0.000000
    44  H    7.757359   4.307695   2.478462   0.000000
    45  H    6.215189   5.003505   4.301848   2.464836   0.000000
    46  H    3.803589   6.494746   7.112638   6.045352   3.759734
    47  H    5.034168   5.938416   5.971503   4.523972   2.187514
    48  H    5.586791   6.318842   6.245462   4.737806   2.582419
    49  H    4.503583   6.851935   7.355900   6.220983   4.015817
    50  H    5.721989   7.643788   7.698093   6.067798   3.656116
                   46         47         48         49         50
    46  H    0.000000
    47  H    1.749363   0.000000
    48  H    3.094934   2.525333   0.000000
    49  H    2.562768   3.090203   1.767584   0.000000
    50  H    2.516289   2.502318   1.771955   1.775936   0.000000
 Stoichiometry    C23H23N2S2(1+)
 Framework group  C1[X(C23H23N2S2)]
 Deg. of freedom   144
 Full point group                 C1      NOp   1
 Largest Abelian subgroup         C1      NOp   1
 Largest concise Abelian subgroup C1      NOp   1
                         Standard orientation:                         
 ---------------------------------------------------------------------
 Center     Atomic      Atomic             Coordinates (Angstroms)
 Number     Number       Type             X           Y           Z
 ---------------------------------------------------------------------
      1          6           0       -2.428041    1.066524   -0.253176
      2          6           0       -1.163701    0.479343   -0.188922
      3          6           0        0.041805    1.173916   -0.256816
      4          6           0        1.286450    0.541332   -0.181046
      5          6           0       -3.632364    0.360929   -0.172103
      6         16           0       -3.731682   -1.381240    0.072853
      7          6           0       -5.492381   -1.316150    0.079346
      8          6           0       -5.937414    0.002523   -0.102460
      9          7           0       -4.878726    0.909623   -0.261587
     10          6           0       -6.386349   -2.371189    0.240698
     11          6           0       -7.751214   -2.085245    0.223608
     12          6           0       -8.201765   -0.770406    0.051330
     13          6           0       -7.306986    0.285734   -0.111525
     14          6           0       -5.109277    2.349928   -0.473641
     15          6           0       -5.164583    3.142776    0.833251
     16          6           0        2.499506    1.229230   -0.203687
     17          6           0        3.822110    0.764058   -0.127091
     18         16           0        5.094002    1.944187    0.172030
     19          6           0        6.326179    0.693711    0.140374
     20          6           0        5.740783   -0.561555   -0.088266
     21          7           0        4.346445   -0.488644   -0.256376
     22          6           0        7.702092    0.835001    0.309547
     23          6           0        8.493059   -0.310930    0.250826
     24          6           0        7.913914   -1.567173    0.028296
     25          6           0        6.538273   -1.709565   -0.142327
     26          6           0        3.573454   -1.678630   -0.651238
     27          6           0        3.111260   -2.522112    0.538719
     28          1           0       -2.480232    2.144966   -0.359543
     29          1           0       -1.101764   -0.604050   -0.075964
     30          1           0        0.014895    2.256753   -0.370616
     31          1           0        1.271155   -0.537990   -0.061902
     32          1           0       -6.030956   -3.387372    0.377927
     33          1           0       -8.467850   -2.890478    0.348789
     34          1           0       -9.267265   -0.563876    0.046694
     35          1           0       -7.675558    1.298131   -0.232690
     36          1           0       -4.320988    2.718242   -1.133807
     37          1           0       -6.043470    2.442277   -1.031819
     38          1           0       -4.221825    3.066705    1.383681
     39          1           0       -5.350379    4.199206    0.614515
     40          1           0       -5.968923    2.780771    1.480961
     41          1           0        2.426074    2.314290   -0.229676
     42          1           0        8.144449    1.810753    0.482525
     43          1           0        9.567045   -0.226720    0.381606
     44          1           0        8.544040   -2.450028   -0.009720
     45          1           0        6.108776   -2.691785   -0.303762
     46          1           0        2.735494   -1.334144   -1.259472
     47          1           0        4.216087   -2.264286   -1.313807
     48          1           0        3.963720   -2.884064    1.121248
     49          1           0        2.464779   -1.951800    1.212975
     50          1           0        2.552692   -3.391803    0.177306
 ---------------------------------------------------------------------
 Rotational constants (GHZ):           0.5241396           0.0450045           0.0417493
 Standard basis: 6-31G(d,p) (6D, 7F)
 There are   528 symmetry adapted cartesian basis functions of A   symmetry.
 There are   528 symmetry adapted basis functions of A   symmetry.
   528 basis functions,   965 primitive gaussians,   528 cartesian basis functions
   103 alpha electrons      103 beta electrons
       nuclear repulsion energy      2425.7707626972 Hartrees.
 NAtoms=   50 NActive=   50 NUniq=   50 SFac= 1.00D+00 NAtFMM=   60 NAOKFM=F Big=F
 Integral buffers will be    131072 words long.
 Regular integral format.
 Two-electron integral symmetry is turned on.
 ------------------------------------------------------------------------------
 Polarizable Continuum Model (PCM)
 =================================
 Model                : PCM.
 Atomic radii         : SMD-Coulomb.
 Polarization charges : Total charges.
 Charge compensation  : None.
 Solution method      : On-the-fly selection.
 Cavity type          : VdW (van der Waals Surface) (Alpha=1.000).
 Cavity algorithm     : GePol (No added spheres)
                        Default sphere list used, NSphG=   50.
                        Lebedev-Laikov grids with approx.  5.0 points / Ang**2.
                        Smoothing algorithm: York/Karplus (Gamma=1.0000).
                        Polarization charges: spherical gaussians, with
                                              point-specific exponents (IZeta= 3).
                        Self-potential: point-specific (ISelfS= 7).
                        Self-field    : sphere-specific E.n sum rule (ISelfD= 2).
 Solvent              : Ethanol, Eps=  24.852000 Eps(inf)=   1.852593
 ------------------------------------------------------------------------------
 ------------------------------------------------------------------------------
 Atomic radii for non-electrostatic terms: SMD-CDS.
 ------------------------------------------------------------------------------
 Nuclear repulsion after PCM non-electrostatic terms =     2425.7643538585 Hartrees.
 One-electron integrals computed using PRISM.
 NBasis=   528 RedAO= T EigKep=  4.47D-04  NBF=   528
 NBsUse=   528 1.00D-06 EigRej= -1.00D+00 NBFU=   528
 ExpMin= 1.17D-01 ExpMax= 2.19D+04 ExpMxC= 3.30D+03 IAcc=3 IRadAn=         5 AccDes= 0.00D+00
 Harris functional with IExCor=  402 and IRadAn=       5 diagonalized for initial guess.
 HarFok:  IExCor=  402 AccDes= 0.00D+00 IRadAn=         5 IDoV= 1 UseB2=F ITyADJ=14
 ICtDFT=  3500011 ScaDFX=  1.000000  1.000000  1.000000  1.000000
 FoFCou: FMM=F IPFlag=           0 FMFlag=      100000 FMFlg1=           0
         NFxFlg=           0 DoJE=T BraDBF=F KetDBF=T FulRan=T
         wScrn=  0.000000 ICntrl=       500 IOpCl=  0 I1Cent=   200000004 NGrid=           0
         NMat0=    1 NMatS0=      1 NMatT0=    0 NMatD0=    1 NMtDS0=    0 NMtDT0=    0
 Petite list used in FoFCou.
 Requested convergence on RMS density matrix=1.00D-08 within 128 cycles.
 Requested convergence on MAX density matrix=1.00D-06.
 Requested convergence on             energy=1.00D-06.
 No special actions if energy rises.
 Inv3:  Mode=1 IEnd=    44444403.
 Iteration    1 A*A^-1 deviation from unit magnitude is 3.89D-15 for   2678.
 Iteration    1 A*A^-1 deviation from orthogonality  is 2.11D-15 for   1229    150.
 Iteration    1 A^-1*A deviation from unit magnitude is 3.89D-15 for   2678.
 Iteration    1 A^-1*A deviation from orthogonality  is 3.97D-14 for   3390   2563.
 Error on total polarization charges =  0.05318
 SCF Done:  E(RB3LYP) =  -1796.09616839     A.U. after   13 cycles
            NFock= 13  Conv=0.67D-08     -V/T= 2.0070
 SMD-CDS (non-electrostatic) energy       (kcal/mol) =      -4.02
 (included in total energy above)
 DoSCS=F DFT=T ScalE2(SS,OS)=  1.000000  1.000000
 ExpMin= 1.17D-01 ExpMax= 2.19D+04 ExpMxC= 3.30D+03 IAcc=3 IRadAn=         5 AccDes= 0.00D+00
 HarFok:  IExCor=  205 AccDes= 0.00D+00 IRadAn=         5 IDoV=-2 UseB2=F ITyADJ=14
 ICtDFT= 12500011 ScaDFX=  1.000000  1.000000  1.000000  1.000000
 GSVD:  LWork=       -1505 too small for GESVD, short by        6650 words or        6650 for optimal perf.
 Range of M.O.s used for correlation:    36   528
 NBasis=   528 NAE=   103 NBE=   103 NFC=    35 NFV=     0
 NROrb=    493 NOA=    68 NOB=    68 NVA=   425 NVB=   425

 **** Warning!!: The smallest alpha delta epsilon is  0.88440047D-01

 NEqPCM:  Using non-equilibrium solvation (IEInf=1, Eps=  24.8520, EpsInf=   1.8526)
 Inv3:  Mode=1 IEnd=    44444403.
 Iteration    1 A*A^-1 deviation from unit magnitude is 3.55D-15 for    254.
 Iteration    1 A*A^-1 deviation from orthogonality  is 2.36D-15 for   1139    369.
 Iteration    1 A^-1*A deviation from unit magnitude is 3.55D-15 for    254.
 Iteration    1 A^-1*A deviation from orthogonality  is 2.89D-15 for   1971     45.
 Orbital symmetries:
       Occupied  (A) (A) (A) (A) (A) (A) (A) (A) (A) (A) (A) (A)
                 (A) (A) (A) (A) (A) (A) (A) (A) (A) (A) (A) (A)
                 (A) (A) (A) (A) (A) (A) (A) (A) (A) (A) (A) (A)
                 (A) (A) (A) (A) (A) (A) (A) (A) (A) (A) (A) (A)
                 (A) (A) (A) (A) (A) (A) (A) (A) (A) (A) (A) (A)
                 (A) (A) (A) (A) (A) (A) (A) (A) (A) (A) (A) (A)
                 (A) (A) (A) (A) (A) (A) (A) (A) (A) (A) (A) (A)
                 (A) (A) (A) (A) (A) (A) (A) (A) (A) (A) (A) (A)
                 (A) (A) (A) (A) (A) (A) (A)
       Virtual   (A) (A) (A) (A) (A) (A) (A) (A) (A) (A) (A) (A)
                 (A) (A) (A) (A) (A) (A) (A) (A) (A) (A) (A) (A)
                 (A) (A) (A) (A) (A) (A) (A) (A) (A) (A) (A) (A)
                 (A) (A) (A) (A) (A) (A) (A) (A) (A) (A) (A) (A)
                 (A) (A) (A) (A) (A) (A) (A) (A) (A) (A) (A) (A)
                 (A) (A) (A) (A) (A) (A) (A) (A) (A) (A) (A) (A)
                 (A) (A) (A) (A) (A) (A) (A) (A) (A) (A) (A) (A)
                 (A) (A) (A) (A) (A) (A) (A) (A) (A) (A) (A) (A)
                 (A) (A) (A) (A) (A) (A) (A) (A) (A) (A) (A) (A)
                 (A) (A) (A) (A) (A) (A) (A) (A) (A) (A) (A) (A)
                 (A) (A) (A) (A) (A) (A) (A) (A) (A) (A) (A) (A)
                 (A) (A) (A) (A) (A) (A) (A) (A) (A) (A) (A) (A)
                 (A) (A) (A) (A) (A) (A) (A) (A) (A) (A) (A) (A)
                 (A) (A) (A) (A) (A) (A) (A) (A) (A) (A) (A) (A)
                 (A) (A) (A) (A) (A) (A) (A) (A) (A) (A) (A) (A)
                 (A) (A) (A) (A) (A) (A) (A) (A) (A) (A) (A) (A)
                 (A) (A) (A) (A) (A) (A) (A) (A) (A) (A) (A) (A)
                 (A) (A) (A) (A) (A) (A) (A) (A) (A) (A) (A) (A)
                 (A) (A) (A) (A) (A) (A) (A) (A) (A) (A) (A) (A)
                 (A) (A) (A) (A) (A) (A) (A) (A) (A) (A) (A) (A)
                 (A) (A) (A) (A) (A) (A) (A) (A) (A) (A) (A) (A)
                 (A) (A) (A) (A) (A) (A) (A) (A) (A) (A) (A) (A)
                 (A) (A) (A) (A) (A) (A) (A) (A) (A) (A) (A) (A)
                 (A) (A) (A) (A) (A) (A) (A) (A) (A) (A) (A) (A)
                 (A) (A) (A) (A) (A) (A) (A) (A) (A) (A) (A) (A)
                 (A) (A) (A) (A) (A) (A) (A) (A) (A) (A) (A) (A)
                 (A) (A) (A) (A) (A) (A) (A) (A) (A) (A) (A) (A)
                 (A) (A) (A) (A) (A) (A) (A) (A) (A) (A) (A) (A)
                 (A) (A) (A) (A) (A) (A) (A) (A) (A) (A) (A) (A)
                 (A) (A) (A) (A) (A) (A) (A) (A) (A) (A) (A) (A)
                 (A) (A) (A) (A) (A) (A) (A) (A) (A) (A) (A) (A)
                 (A) (A) (A) (A) (A) (A) (A) (A) (A) (A) (A) (A)
                 (A) (A) (A) (A) (A) (A) (A) (A) (A) (A) (A) (A)
                 (A) (A) (A) (A) (A) (A) (A) (A) (A) (A) (A) (A)
                 (A) (A) (A) (A) (A) (A) (A) (A) (A) (A) (A) (A)
                 (A) (A) (A) (A) (A)
   280 initial guesses have been made.
 Convergence on wavefunction:    0.001000000000000
 Iteration     1 Dimension   280 NMult     0 NNew    280
 CISAX will form    32 AO SS matrices at one time.
 New state      5 was old state      9
 New state      8 was old state     11
 New state      9 was old state      5
 New state     10 was old state      8
 New state     11 was old state     10
 New state     13 was old state     14
 New state     14 was old state     13
 New state     15 was old state     17
 New state     16 was old state     32
 New state     17 was old state     15
 New state     18 was old state     16
 New state     19 was old state     36
 New state     21 was old state     23
 New state     22 was old state     28
 New state     23 was old state     18
 New state     24 was old state     19
 New state     25 was old state     27
 New state     26 was old state     21
 New state     27 was old state     22
 New state     28 was old state     38
 New state     29 was old state     25
 New state     30 was old state     41
 New state     31 was old state     29
 New state     32 was old state     26
 New state     33 was old state     42
 New state     34 was old state     30
 New state     35 was old state     47
 New state     36 was old state     46
 New state     37 was old state     33
 New state     38 was old state     45
 New state     39 was old state     37
 New state     40 was old state     34
 New state     41 was old state     24
 New state     42 was old state     48
 New state     43 was old state     49
 New state     44 was old state     43
 New state     45 was old state     54
 New state     46 was old state     51
 New state     47 was old state     73
 New state     48 was old state     44
 New state     49 was old state     52
 New state     50 was old state     56
 New state     51 was old state     58
 New state     52 was old state     57
 New state     53 was old state     64
 New state     54 was old state     60
 New state     55 was old state     63
 New state     56 was old state     61
 New state     57 was old state     62
 New state     58 was old state     50
 New state     59 was old state     68
 New state     60 was old state     67
 New state     61 was old state     88
 New state     62 was old state     59
 New state     63 was old state     79
 New state     64 was old state     65
 New state     65 was old state     95
 New state     66 was old state     72
 New state     67 was old state     69
 New state     68 was old state     71
 New state     69 was old state     70
 New state     70 was old state     75
 Iteration     2 Dimension   420 NMult   280 NNew    140
 New state      5 was old state      7
 New state      6 was old state      5
 New state      7 was old state      6
 New state      8 was old state      9
 New state      9 was old state      8
 New state     13 was old state     14
 New state     14 was old state     13
 New state     16 was old state     17
 New state     17 was old state     18
 New state     18 was old state     20
 New state     19 was old state     16
 New state     20 was old state     19
 New state     22 was old state     23
 New state     23 was old state     24
 New state     24 was old state     22
 New state     27 was old state     31
 New state     29 was old state     27
 New state     31 was old state     32
 New state     32 was old state     29
 New state     34 was old state     37
 New state     35 was old state     41
 New state     37 was old state     34
 New state     38 was old state     35
 New state     39 was old state     40
 New state     40 was old state     38
 New state     41 was old state     44
 New state     42 was old state     50
 New state     43 was old state     39
 New state     44 was old state     42
 New state     45 was old state     43
 New state     47 was old state     48
 New state     48 was old state     45
 New state     49 was old state     47
 New state     50 was old state     49
 New state     51 was old state     55
 New state     52 was old state     56
 New state     53 was old state     51
 New state     54 was old state     52
 New state     55 was old state     53
 New state     56 was old state     58
 New state     57 was old state     54
 New state     58 was old state     57
 New state     59 was old state     64
 New state     60 was old state     59
 New state     61 was old state     60
 New state     63 was old state     61
 New state     64 was old state     68
 New state     65 was old state     75
 New state     66 was old state     63
 New state     67 was old state     65
 New state     68 was old state     73
 New state     69 was old state     66
 New state     70 was old state     74
 Iteration     3 Dimension   560 NMult   420 NNew    140
 New state     69 was old state     70
 New state     70 was old state     69
 Iteration     4 Dimension   694 NMult   560 NNew    134
 Iteration     5 Dimension   736 NMult   694 NNew     42
 ***********************************************************************
 Excited states from <AA,BB:AA,BB> singles matrix:
 ***********************************************************************
 
 Ground to excited state transition densities written to RWF  633
 Ground to excited state transition electric dipole moments (Au):
       state          X           Y           Z        Dip. S.      Osc.
         1         6.3640      0.1847      0.0065     40.5352      2.2748
         2        -0.3756      0.1668     -0.0530      0.1717      0.0151
         3         0.3562     -0.3501      0.0245      0.2500      0.0228
         4        -0.0759     -0.4189     -0.0537      0.1842      0.0170
         5        -0.0360      0.8729     -0.1413      0.7832      0.0780
         6        -0.1618      0.3005      0.0385      0.1180      0.0118
         7        -0.5879      0.3228     -0.0261      0.4505      0.0453
         8        -0.1344      0.1671     -0.1256      0.0618      0.0063
         9        -0.0740     -0.0568      0.0380      0.0101      0.0010
        10         0.2505      0.2230     -0.0145      0.1127      0.0120
        11        -0.0872      0.4237     -0.0083      0.1872      0.0207
        12         0.1136      0.2459     -0.0295      0.0742      0.0087
        13         0.0469     -0.1612      0.0521      0.0309      0.0039
        14        -0.5016     -0.0348     -0.0022      0.2528      0.0325
        15         0.0865     -0.1436      0.0343      0.0293      0.0039
        16         0.0547     -0.3989     -0.0065      0.1622      0.0218
        17        -0.3591      0.0055     -0.0465      0.1311      0.0177
        18        -0.0141     -0.3767     -0.0396      0.1437      0.0195
        19        -0.0338     -0.0861      0.0108      0.0087      0.0012
        20         0.0239     -0.0718      0.0135      0.0059      0.0008
        21         0.0178     -0.1062     -0.0177      0.0119      0.0017
        22         0.2846     -0.1422      0.0819      0.1079      0.0151
        23        -0.2878      0.7359      0.0420      0.6261      0.0883
        24        -0.0713      0.2271      0.0158      0.0569      0.0081
        25        -0.0202      0.6796     -0.0248      0.4629      0.0665
        26        -0.9674     -0.1829      0.0105      0.9695      0.1400
        27         0.9537      0.0905     -0.0308      0.9187      0.1345
        28         0.0211      0.0026      0.0214      0.0009      0.0001
        29         0.1152      0.0052     -0.0013      0.0133      0.0020
        30         0.2811      0.0281      0.0398      0.0814      0.0122
        31        -0.4991      0.1290     -0.0559      0.2689      0.0403
        32         0.1228      0.1727      0.0122      0.0451      0.0068
        33         0.1082      0.3685     -0.0958      0.1567      0.0236
        34         0.3510     -0.0998      0.0874      0.1408      0.0214
        35         0.1955     -0.2024     -0.0156      0.0794      0.0121
        36         0.5611      0.2155      0.0012      0.3613      0.0560
        37         0.0066      0.0291     -0.0042      0.0009      0.0001
        38         0.0525      0.0735      0.0511      0.0108      0.0017
        39         0.5280      0.3042      0.0295      0.3722      0.0581
        40        -0.4022     -0.2959      0.0157      0.2496      0.0392
        41         0.1118     -0.4700      0.0887      0.2412      0.0381
        42         0.2836     -0.0489      0.0924      0.0914      0.0144
        43        -0.0007      0.0046      0.0000      0.0000      0.0000
        44        -0.0250     -0.1248      0.0155      0.0164      0.0026
        45        -0.0593      0.1422     -0.0064      0.0238      0.0038
        46         0.4377     -0.1704      0.0102      0.2208      0.0355
        47         0.5684     -0.6739     -0.0156      0.7774      0.1260
        48        -0.3222      0.1928      0.0315      0.1419      0.0230
        49        -0.1347     -0.0179      0.0014      0.0185      0.0030
        50        -0.8167      0.0234      0.0333      0.6687      0.1097
        51        -1.2895      0.1684     -0.0037      1.6911      0.2781
        52        -0.0260     -0.6084      0.0005      0.3708      0.0611
        53         0.2813     -0.2942     -0.0285      0.1665      0.0275
        54        -0.1209      0.2868     -0.0466      0.0991      0.0164
        55         0.0185      0.0512      0.0318      0.0040      0.0007
        56        -0.2770     -0.4608     -0.0283      0.2899      0.0491
        57        -0.1110     -0.2790     -0.0093      0.0903      0.0153
        58         0.1494      0.0256      0.0517      0.0256      0.0044
        59         0.6752      0.2499     -0.0027      0.5183      0.0893
        60         0.2310      0.0103      0.0906      0.0617      0.0107
        61        -0.0934      0.1168     -0.0277      0.0231      0.0040
        62        -0.0014      0.1986     -0.0645      0.0436      0.0076
        63        -0.1607      0.0401     -0.0126      0.0276      0.0049
        64         0.1682      0.2342     -0.0184      0.0835      0.0148
        65        -0.4037      0.0529      0.0123      0.1659      0.0294
        66        -0.0116     -0.0054      0.0237      0.0007      0.0001
        67        -0.1038      0.0300     -0.0174      0.0120      0.0021
        68        -0.1229     -0.4264     -0.0730      0.2023      0.0365
        69        -0.3883      0.3858     -0.0196      0.3000      0.0542
        70         0.2247      0.0146      0.0467      0.0529      0.0096
 Ground to excited state transition velocity dipole moments (Au):
       state          X           Y           Z        Dip. S.      Osc.
         1        -0.5202     -0.0133     -0.0006      0.2708      2.1445
         2         0.0454     -0.0208      0.0066      0.0025      0.0128
         3        -0.0487      0.0452     -0.0030      0.0044      0.0215
         4         0.0027      0.0568      0.0057      0.0033      0.0157
         5         0.0024     -0.1278      0.0211      0.0168      0.0748
         6         0.0218     -0.0443     -0.0104      0.0025      0.0113
         7         0.0820     -0.0528      0.0060      0.0095      0.0421
         8         0.0224     -0.0260      0.0172      0.0015      0.0064
         9         0.0102      0.0082     -0.0090      0.0003      0.0011
        10        -0.0460     -0.0381      0.0021      0.0036      0.0150
        11         0.0089     -0.0750      0.0014      0.0057      0.0229
        12        -0.0235     -0.0396      0.0031      0.0021      0.0081
        13        -0.0061      0.0314     -0.0095      0.0011      0.0039
        14         0.0908      0.0083      0.0003      0.0083      0.0287
        15        -0.0175      0.0297     -0.0071      0.0012      0.0042
        16        -0.0115      0.0719      0.0014      0.0053      0.0176
        17         0.0641     -0.0033      0.0094      0.0042      0.0139
        18         0.0070      0.0745      0.0078      0.0057      0.0185
        19         0.0085      0.0183     -0.0144      0.0006      0.0020
        20        -0.0049      0.0130     -0.0143      0.0004      0.0013
        21        -0.0042      0.0210     -0.0009      0.0005      0.0015
        22        -0.0573      0.0291     -0.0145      0.0043      0.0138
        23         0.0571     -0.1539     -0.0107      0.0271      0.0853
        24         0.0152     -0.0479     -0.0020      0.0025      0.0079
        25         0.0097     -0.1352      0.0049      0.0184      0.0570
        26         0.1989      0.0488     -0.0012      0.0419      0.1290
        27        -0.1991     -0.0249      0.0074      0.0403      0.1224
        28        -0.0039     -0.0004     -0.0025      0.0000      0.0001
        29        -0.0239      0.0003      0.0003      0.0006      0.0017
        30        -0.0631     -0.0080     -0.0101      0.0041      0.0123
        31         0.1114     -0.0268      0.0122      0.0133      0.0393
        32        -0.0306     -0.0394     -0.0036      0.0025      0.0074
        33        -0.0262     -0.0801      0.0214      0.0076      0.0223
        34        -0.0840      0.0245     -0.0236      0.0082      0.0240
        35        -0.0351      0.0570      0.0045      0.0045      0.0131
        36        -0.1268     -0.0511      0.0022      0.0187      0.0536
        37        -0.0011     -0.0082     -0.0003      0.0001      0.0002
        38        -0.0125     -0.0163     -0.0153      0.0007      0.0019
        39        -0.1191     -0.0711     -0.0057      0.0193      0.0548
        40         0.0883      0.0797     -0.0012      0.0141      0.0400
        41        -0.0270      0.1111     -0.0224      0.0136      0.0382
        42        -0.0684      0.0067     -0.0227      0.0052      0.0147
        43         0.0002     -0.0009     -0.0004      0.0000      0.0000
        44         0.0086      0.0339     -0.0172      0.0015      0.0042
        45         0.0155     -0.0380      0.0005      0.0017      0.0047
        46        -0.1022      0.0363     -0.0024      0.0118      0.0326
        47        -0.1351      0.1584      0.0032      0.0434      0.1189
        48         0.0783     -0.0429     -0.0117      0.0081      0.0222
        49         0.0319      0.0025     -0.0132      0.0012      0.0033
        50         0.1951     -0.0062     -0.0088      0.0382      0.1034
        51         0.3044     -0.0461      0.0022      0.0948      0.2562
        52         0.0087      0.1459      0.0046      0.0214      0.0577
        53        -0.0685      0.0685      0.0058      0.0094      0.0253
        54         0.0305     -0.0686      0.0109      0.0058      0.0154
        55        -0.0022     -0.0132     -0.0074      0.0002      0.0006
        56         0.0681      0.1181      0.0086      0.0187      0.0489
        57         0.0299      0.0710      0.0012      0.0059      0.0156
        58        -0.0353     -0.0100     -0.0127      0.0015      0.0039
        59        -0.1669     -0.0767     -0.0002      0.0337      0.0870
        60        -0.0590     -0.0047     -0.0235      0.0041      0.0104
        61         0.0250     -0.0310      0.0066      0.0016      0.0042
        62         0.0039     -0.0524      0.0177      0.0031      0.0078
        63         0.0423     -0.0117      0.0111      0.0021      0.0052
        64        -0.0450     -0.0657      0.0061      0.0064      0.0160
        65         0.1129     -0.0124     -0.0057      0.0129      0.0324
        66         0.0017      0.0012     -0.0108      0.0001      0.0003
        67         0.0281     -0.0054      0.0113      0.0009      0.0024
        68         0.0348      0.1172      0.0199      0.0153      0.0378
        69         0.1063     -0.1068      0.0045      0.0227      0.0559
        70        -0.0627     -0.0013     -0.0112      0.0041      0.0100
 Ground to excited state transition magnetic dipole moments (Au):
       state          X           Y           Z
         1         0.0316      0.3408      1.4237
         2        -0.0160      0.0167      0.0673
         3         0.0290      0.0159     -0.2530
         4         0.0543     -0.0407      0.3896
         5        -0.0477      0.1315     -0.0719
         6         0.0233     -0.0618     -0.7486
         7         0.0354      0.1630      0.6907
         8        -0.0918     -0.1386      1.6136
         9        -0.1507      0.1108     -0.0905
        10         0.0058      0.0884      0.0849
        11         0.0016      0.2259      0.2660
        12         0.0215      0.0190     -0.9869
        13         0.0256     -0.0608      0.1844
        14         0.0008     -0.0364     -0.1667
        15         0.0086      0.0315     -0.5717
        16         0.1031     -0.0079     -0.2435
        17         0.0335     -0.1367      0.8988
        18         0.0566     -0.2134     -0.0857
        19        -0.0900      0.5111      0.2583
        20         0.3267     -0.4135     -0.1618
        21        -0.0554     -0.1336      0.1304
        22        -0.0019      0.0013     -1.5138
        23        -0.0004      0.2549     -0.4098
        24         0.1163     -0.0339      0.1229
        25        -0.0314      0.0938     -1.2841
        26        -0.0063     -0.1953     -0.1166
        27         0.0140      0.2438      1.4575
        28         0.0072     -0.0698     -0.0132
        29        -0.0126     -0.0294     -0.1672
        30         0.1953      0.1226      0.1841
        31         0.0023     -0.1772      0.6705
        32         0.0337      0.1423     -0.4119
        33        -0.0143      0.1382      1.7069
        34         0.0583     -0.0082     -2.3183
        35        -0.1056     -0.2594      0.3296
        36         0.2524      0.2238      0.5483
        37        -0.0354      0.0159      0.1536
        38        -0.1623      0.1453      0.0293
        39        -0.2124      0.2148      0.3865
        40         0.1888     -0.1332     -0.5569
        41        -0.0189     -0.0087     -1.8813
        42         0.0551      0.1218     -1.7116
        43         0.0011      0.0072     -0.0050
        44        -0.1472     -0.0047      0.2938
        45        -0.0611      0.0150     -0.0710
        46         0.0025     -0.0027     -0.6551
        47        -0.0439     -0.0575      2.2074
        48        -0.0118      0.1075     -0.4867
        49         0.0089      0.0085      0.3427
        50        -0.0385     -0.0417      0.0803
        51         0.1836      0.0805     -0.8715
        52        -0.0275      0.0152      2.2698
        53         0.0481     -0.3151      0.4690
        54         0.2577     -0.1480     -0.0682
        55         0.3279     -0.1358     -0.4777
        56         0.1141     -0.3014      0.0479
        57        -0.1511     -0.2566     -0.2043
        58         0.0478      0.0314     -0.1826
        59        -0.1027      0.2289      0.5232
        60        -0.1685      0.0003     -0.2093
        61        -0.0689      0.0510      0.5980
        62         0.0338     -0.0066      0.9438
        63         0.0898      0.1809     -0.1318
        64         0.0055      0.0326      0.2729
        65        -0.0451     -0.1231     -0.6809
        66         0.4715      0.1189      0.0653
        67         0.2238     -0.1504      0.2475
        68        -0.1157     -0.2056      2.7863
        69         0.0731      0.3465      0.9786
        70        -0.1438      0.1987     -0.5363
 Ground to excited state transition velocity quadrupole moments (Au):
       state          XX          YY          ZZ          XY          XZ          YZ
         1        -0.1589      0.0613      0.0044      0.2072     -0.0328     -0.0320
         2         2.0959      0.1741      0.0153      0.1737     -0.0010     -0.0047
         3         0.8801      0.0668     -0.0105     -0.3159      0.0267     -0.0040
         4        -0.0554      0.0345      0.0094      0.5563      0.0550      0.0056
         5         6.1456      0.1706      0.0152      0.0758      0.0332      0.0373
         6         0.4395      0.0316     -0.0121     -0.4741     -0.1186     -0.0217
         7        -1.1137      0.0671      0.0173      0.0364     -0.0263      0.0089
         8         2.5820      0.1339      0.0235      1.0420      0.0198      0.0136
         9        -0.9861     -0.0105     -0.0100     -0.0894      0.0300      0.0216
        10         0.4430      0.0231      0.0026     -0.2356      0.0110     -0.0005
        11        -0.1897      0.1154     -0.0007      0.7607     -0.1843     -0.0052
        12         1.2522      0.0520      0.0281     -0.5097      0.0098      0.0451
        13        -2.7861     -0.3310     -0.0500     -0.0421     -0.0028     -0.0303
        14         0.0597      0.0087     -0.0010      0.1580     -0.0248     -0.0007
        15        -1.5044      0.0327      0.0238     -0.3764     -0.0113      0.0105
        16         0.4294      0.2379      0.0023     -0.0859     -0.0063      0.0186
        17         0.1157     -0.1108      0.0056      0.9715      0.0346      0.0025
        18         1.4810      0.0414     -0.0011     -0.4305      0.1499      0.0272
        19         0.0319      0.0194      0.0074      0.2022     -0.0581     -0.0685
        20         0.0518     -0.0732      0.0095     -0.1894      0.0531     -0.0064
        21        -0.0821     -0.0591     -0.0026      0.0959     -0.0000     -0.0162
        22         0.1664     -0.1736     -0.0096     -1.2755     -0.0010      0.0193
        23        -2.4061      0.1790      0.0032     -0.4549     -0.2769     -0.0215
        24        -0.3053      0.0626      0.0026      0.0943     -0.0747     -0.0233
        25         5.8852      0.0351     -0.0607     -0.8588     -0.0315     -0.0274
        26        -1.9615     -0.2656      0.0162     -0.6432      0.2042      0.0152
        27        -0.4788      0.4069     -0.0031      2.1720     -0.3035     -0.0250
        28        -0.2239     -0.0020      0.0076     -0.0179     -0.0062     -0.0206
        29         1.0213     -0.0798     -0.0073     -0.0097      0.0243      0.0032
        30        -0.4541      0.2259     -0.0074      0.3412     -0.0929      0.0262
        31         2.4663     -0.1990     -0.0157      0.4495      0.2022      0.0193
        32        -0.1892      0.1355     -0.0005     -0.2437     -0.1481     -0.0102
        33         1.5917      0.2207     -0.0136      1.6887     -0.1600     -0.0393
        34        -0.4215     -0.2781      0.0215     -1.4196     -0.0353      0.0494
        35         1.7866     -0.4147     -0.0077      0.5110      0.2136      0.0070
        36        -1.7252      0.1167      0.0148      0.7171     -0.1314      0.0702
        37         0.4102      0.0402     -0.0070      0.1256     -0.0226     -0.0200
        38        -0.0970      0.0354     -0.0024      0.1552     -0.0160     -0.0225
        39        -1.3056      0.2138     -0.0153      0.6018     -0.2750     -0.0738
        40         0.4871     -0.1467      0.0024     -0.6044      0.2118      0.0204
        41        -4.0465      0.0168      0.0571     -1.8498      0.0015      0.0946
        42        -3.1193      0.1221      0.0511     -1.2679     -0.0513      0.0492
        43         0.0020      0.0020     -0.0001     -0.0048     -0.0010     -0.0005
        44        -0.4040      0.0061     -0.0032      0.2792     -0.1040     -0.0817
        45        -0.2239      0.0614     -0.0053     -0.2322      0.0216      0.0077
        46         2.3327     -0.0193     -0.0140     -0.3012     -0.0008      0.0173
        47        -3.3711     -0.0250      0.0427      2.2783      0.0354     -0.0009
        48         0.8923     -0.0689     -0.0041     -0.5993     -0.0650     -0.0725
        49        -0.7920      0.0843     -0.0036      0.1205      0.0690      0.0366
        50        -2.2620      0.3000      0.0151     -0.4731      0.1343     -0.0325
        51        -3.4404      0.3765      0.0286     -2.0521     -0.0412     -0.0137
        52        -8.4526      0.3375      0.0619      1.3387      0.0192      0.0446
        53        -1.3463     -0.0439      0.0622      0.4558      0.2090      0.0352
        54         1.3222      0.0226      0.0580     -0.0462      0.0249      0.0752
        55        -0.3247     -0.1078     -0.0220     -0.3578      0.0499      0.0777
        56         2.0275     -0.4114     -0.0015     -0.1540      0.3709      0.0707
        57         1.0836     -0.4317     -0.0075     -0.2167      0.2133     -0.0463
        58        -0.6706     -0.0218     -0.0085     -0.0466     -0.0251     -0.0051
        59        -1.4318      0.3483      0.0045      0.9976     -0.2435      0.0061
        60        -0.3839      0.1098      0.0249     -0.1345      0.0083     -0.0946
        61         1.3461      0.0433     -0.0270      0.5645      0.0576     -0.0726
        62         1.7974      0.0569     -0.0205      1.3222     -0.0639     -0.0083
        63         0.7130     -0.0341      0.0501     -0.3078      0.2724      0.0837
        64         3.2694     -0.0649     -0.0266      0.1797     -0.1067     -0.0608
        65         0.2025      0.0051     -0.0138     -0.9794      0.0472     -0.0083
        66         0.0876      0.0955     -0.0286      0.0365     -0.0742      0.0823
        67        -0.8346      0.0789      0.0370      0.0585     -0.1772     -0.1625
        68        -0.4476     -0.0964      0.0145      2.3381      0.2595      0.0113
        69        -3.3800      0.7905     -0.0027      0.3417     -0.2364     -0.0358
        70        -0.6030     -0.0801      0.0137     -0.3082     -0.1333     -0.0822
 <0|del|b> * <b|rxdel|0> + <0|del|b> * <b|delr+rdel|0>
 Rotatory Strengths (R) in cgs (10**-40 erg-esu-cm/Gauss)
       state          XX          YY          ZZ    R(velocity)    E-M Angle
         1       -24.6647     -2.0672   -156.1917    -60.9746       91.64
         2         3.2498     -4.3943     -2.2494     -1.1313      100.16
         3         3.1788     -3.6305      0.8159      0.1214       90.00
         4        -0.1696     -2.0052      2.4172      0.0808       90.00
         5       -29.5240     -7.4271    -50.2734    -29.0748      154.79
         6        24.1575      6.8343     21.1673     17.3864       73.05
         7       -13.1699     17.6981    -11.8183     -2.4300       91.29
         8       115.3963     18.7280      1.6876     45.2706       61.91
         9         5.2200     -3.0093     -1.4065      0.2681       86.96
        10        -7.2621      0.9862     -9.0474     -5.1077      118.07
        11       -62.4681     -1.4965     -6.4918    -23.4855      128.94
        12       -10.1417     -6.1592     -1.1790     -5.8266       95.47
        13        -5.9228     -3.9570     -4.3661     -4.7486      125.71
        14        -0.1812     -0.1749     -0.6697     -0.3419       91.03
        15        14.1839      1.8583      1.1250      5.7224       76.16
        16        -1.0217     -2.8567     -3.4997     -2.4593       96.26
        17        31.6613      2.8512      4.0646     12.8591       79.23
        18       -53.9818      5.6898     -7.8620    -18.7180      155.14
        19         6.5058     -3.7242     14.0160      5.5992       70.25
        20        -1.8400     -3.3800    -10.8475     -5.3559      115.31
        21        -5.0761      0.4577     -4.4635     -3.0273      130.07
        22        68.3159      4.1422      2.0573     24.8384       77.21
        23      -121.3220     -2.8988      7.6506    -38.8567      116.04
        24        -3.9750      2.2554     12.1914      3.4906       68.76
        25       -45.0596     -4.3510    -13.8985    -21.1030       96.34
        26       -30.3138      1.8542     -6.2677    -11.5758      103.20
        27        21.2572     -4.9928    -10.0967      2.0559       89.63
        28         0.1614      0.0651     -0.1262      0.0334       90.00
        29        -0.1130      0.2771      0.5904      0.2515       86.63
        30       -11.0956    -19.4662    -17.1425    -15.9014      142.98
        31        37.3970      8.0105     -4.0370     13.7902       80.52
        32       -14.1957     -0.1638     -1.7379     -5.3658      103.59
        33        76.3721      2.8019      1.7051     26.9597       80.00
        34       137.7025     18.8309     -2.8096     51.2413       76.36
        35       -35.8053      4.0742      2.0715     -9.8865      109.28
        36       -23.3046    -62.7573    -42.2998    -42.7872      118.66
        37        -0.6046      0.0781      0.1090     -0.1392       96.02
        38        -8.2628      6.4246     -0.5409     -0.7930       98.01
        39       -61.0263     53.2753     31.3705      7.8732       83.40
        40       -39.2486     27.6468     31.7195      6.7059       84.64
        41       123.1961     -1.9969      3.3877     41.5290       79.02
        42       102.7049      4.3997      0.1063     35.7370       73.19
        43        -0.0057      0.0002     -0.0081     -0.0045       90.00
        44        -9.5431     -3.2573     -6.2525     -6.3509      120.34
        45         0.1580     -1.1074     -3.6172     -1.5222      113.48
        46         3.3358     -1.7068      2.0311      1.2200       88.99
        47        -0.6777      8.4763      3.3797      3.7261       89.52
        48         7.7011    -11.5024      4.2613      0.1533       89.80
        49        -9.0854     -2.1588     -0.9941     -4.0794      110.91
        50         6.5152    -26.8718     -2.5069     -7.6211      114.46
        51       -17.0970     77.7527     83.4982     48.0513       79.48
        52        22.8356      6.3179      6.2733     11.8089       87.86
        53       -43.5108     -8.0206    -11.6135    -21.0483      113.74
        54        15.0683     14.1058     19.9135     16.3626       41.69
        55        12.1292     -0.0028      0.8109      4.3124       59.47
        56      -111.7278     19.9429     15.5305    -25.4181      128.01
        57       -47.0893     -8.1891     -8.6349    -21.3044      145.68
        58         3.2336      0.3067     -2.6537      0.2955       87.51
        59       -50.0416     22.2049     26.3803     -0.4855       90.29
        60        11.0439     23.5156      5.8762     13.4786       29.75
        61        10.7168     -4.4843     -4.4361      0.5988       88.44
        62        50.2141     -8.9285      5.2027     15.4961       70.79
        63        -5.0880     12.3987     -6.7444      0.1888       88.89
        64        -8.5028      4.0601      2.5050     -0.6459       91.90
        65        15.3981    -10.2757     -4.2639      0.2862       89.77
        66        -1.1553      0.8608      0.9667      0.2241       87.32
        67         4.3653      5.0913     16.6681      8.7082       28.54
        68        62.0107      6.9074      2.4764     23.7981       85.48
        69       -73.5223      8.8796     -0.2351    -21.6260       99.12
        70        11.7252     21.8006      4.9284     12.8181       66.90
 1/2[<0|r|b>*<b|rxdel|0> + (<0|rxdel|b>*<b|r|0>)*]
 Rotatory Strengths (R) in cgs (10**-40 erg-esu-cm/Gauss)
       state          XX          YY          ZZ     R(length)
         1      -142.3516    -44.5105     -6.5007    -64.4543
         2        -4.2378     -1.9751      2.5193     -1.2312
         3        -7.2950      3.9252      4.3791      0.3364
         4         2.9147    -12.0566     14.8084      1.8888
         5        -1.2169    -81.1594     -7.1862    -29.8541
         6         2.6660     13.1424     20.3619     12.0568
         7        14.6972    -37.2060     12.7611     -3.2492
         8        -8.7246     16.3796    143.2944     50.3165
         9        -7.8855      4.4497      2.4294     -0.3355
        10        -1.0209    -13.9345      0.8719     -4.6945
        11         0.0994    -67.6734      1.5654    -22.0029
        12        -1.7307     -3.2989    -20.5897     -8.5397
        13        -0.8498     -6.9303     -6.7909     -4.8570
        14         0.3006     -0.8954     -0.2609     -0.2852
        15        -0.5276      3.1969     13.8673      5.5122
        16        -3.9875     -2.2255     -1.1194     -2.4442
        17         8.5094      0.5292     29.5848     12.8745
        18         0.5649    -56.8537     -2.4027    -19.5638
        19        -2.1513     31.1045     -1.9809      8.9907
        20        -5.5314    -20.9921      1.5483     -8.3251
        21         0.6990    -10.0377      1.6304     -2.5694
        22         0.3739      0.1297     87.7188     29.4075
        23        -0.0824   -132.6697     12.1579    -40.1981
        24         5.8637      5.4479     -1.3760      3.3119
        25        -0.4478    -45.0910    -22.5262    -22.6883
        26        -4.2867    -25.2578      0.8686     -9.5586
        27        -9.4389    -15.5996     31.7487      2.2367
        28        -0.1071      0.1278      0.1997      0.0735
        29         1.0235      0.1091     -0.1508      0.3273
        30       -38.8166     -2.4360     -5.1864    -15.4797
        31         0.8157     16.1577     26.4996     14.4910
        32        -2.9229    -17.3761      3.5405     -5.5862
        33         1.0913    -36.0178    115.5812     26.8849
        34       -14.4685     -0.5807    143.2705     42.7404
        35        14.5926    -37.1260      3.6345     -6.2996
        36      -100.1739    -34.1172     -0.4791    -44.9234
        37         0.1664     -0.3271      0.4561      0.0984
        38         6.0242     -7.5574     -1.0599     -0.8644
        39        79.3107    -46.1903     -8.0599      8.3535
        40        53.6911    -27.8835      6.1977     10.6685
        41         1.4960     -2.8784    117.9979     38.8719
        42       -11.0462      4.2115    111.8981     35.0211
        43         0.0005     -0.0235      0.0001     -0.0076
        44        -2.6046     -0.4147     -3.2265     -2.0820
        45        -2.5651     -1.5043     -0.3233     -1.4642
        46        -0.7854     -0.3267      4.7309      1.2063
        47        17.6627    -27.4015     24.3828      4.8813
        48        -2.6836    -14.6593     10.8414     -2.1672
        49         0.8433      0.1074     -0.3317      0.2063
        50       -22.2351      0.6899     -1.8924     -7.8125
        51       167.4026     -9.5886     -2.2893     51.8416
        52        -0.5071      6.5347     -0.8107      1.7390
        53        -9.5624    -65.5603      9.4581    -21.8882
        54        22.0333     30.0116     -2.2465     16.5995
        55        -4.2859      4.9189     10.7291      3.7874
        56        22.3557    -98.2084      0.9603    -24.9641
        57       -11.8632    -50.6274     -1.3384    -21.2763
        58        -5.0538     -0.5687      6.6747      0.3508
        59        49.0381    -40.4360      0.9964      3.1995
        60        27.5163     -0.0019     13.4130     13.6425
        61        -4.5531     -4.2124     11.7076      0.9807
        62         0.0340      0.9290     43.0300     14.6643
        63        10.2102     -5.1372     -1.1720      1.3003
        64        -0.6562     -5.3968      3.5518     -0.8337
        65       -12.8773      4.6045      5.8990     -0.7913
        66         3.8676      0.4572     -1.0925      1.0774
        67        16.4290      3.1906      3.0472      7.5556
        68       -10.0620    -62.0108    143.8275     23.9182
        69        20.0836    -94.5320     13.5484    -20.3000
        70        22.8521     -2.0573     17.7270     12.8406
  1/2[<0|del|b>*<b|r|0> + (<0|r|b>*<b|del|0>)*] (Au)
       state          X           Y           Z        Dip. S.   Osc.(frdel)
         1        -3.3106     -0.0025     -0.0000      3.3131      2.2087
         2        -0.0170     -0.0035     -0.0003      0.0209      0.0139
         3        -0.0174     -0.0158     -0.0001      0.0333      0.0222
         4        -0.0002     -0.0238     -0.0003      0.0243      0.0162
         5        -0.0001     -0.1115     -0.0030      0.1146      0.0764
         6        -0.0035     -0.0133     -0.0004      0.0173      0.0115
         7        -0.0482     -0.0170     -0.0002      0.0654      0.0436
         8        -0.0030     -0.0043     -0.0022      0.0095      0.0063
         9        -0.0008     -0.0005     -0.0003      0.0016      0.0010
        10        -0.0115     -0.0085     -0.0000      0.0200      0.0134
        11        -0.0008     -0.0318     -0.0000      0.0326      0.0217
        12        -0.0027     -0.0097     -0.0001      0.0125      0.0083
        13        -0.0003     -0.0051     -0.0005      0.0058      0.0039
        14        -0.0455     -0.0003     -0.0000      0.0458      0.0306
        15        -0.0015     -0.0043     -0.0002      0.0060      0.0040
        16        -0.0006     -0.0287     -0.0000      0.0293      0.0195
        17        -0.0230     -0.0000     -0.0004      0.0235      0.0156
        18        -0.0001     -0.0281     -0.0003      0.0285      0.0190
        19        -0.0003     -0.0016     -0.0002      0.0020      0.0013
        20        -0.0001     -0.0009     -0.0002      0.0012      0.0008
        21        -0.0001     -0.0022      0.0000      0.0023      0.0015
        22        -0.0163     -0.0041     -0.0012      0.0216      0.0144
        23        -0.0164     -0.1132     -0.0005      0.1301      0.0868
        24        -0.0011     -0.0109     -0.0000      0.0120      0.0080
        25        -0.0002     -0.0919     -0.0001      0.0922      0.0615
        26        -0.1924     -0.0089     -0.0000      0.2013      0.1342
        27        -0.1899     -0.0023     -0.0002      0.1924      0.1282
        28        -0.0001     -0.0000     -0.0001      0.0001      0.0001
        29        -0.0027      0.0000     -0.0000      0.0027      0.0018
        30        -0.0177     -0.0002     -0.0004      0.0184      0.0122
        31        -0.0556     -0.0035     -0.0007      0.0598      0.0398
        32        -0.0038     -0.0068     -0.0000      0.0106      0.0071
        33        -0.0028     -0.0295     -0.0021      0.0344      0.0229
        34        -0.0295     -0.0024     -0.0021      0.0340      0.0227
        35        -0.0069     -0.0115     -0.0001      0.0185      0.0123
        36        -0.0712     -0.0110      0.0000      0.0822      0.0548
        37        -0.0000     -0.0002      0.0000      0.0002      0.0002
        38        -0.0007     -0.0012     -0.0008      0.0026      0.0018
        39        -0.0629     -0.0216     -0.0002      0.0847      0.0564
        40        -0.0355     -0.0236     -0.0000      0.0591      0.0394
        41        -0.0030     -0.0522     -0.0020      0.0572      0.0381
        42        -0.0194     -0.0003     -0.0021      0.0218      0.0146
        43        -0.0000     -0.0000     -0.0000      0.0000      0.0000
        44        -0.0002     -0.0042     -0.0003      0.0047      0.0031
        45        -0.0009     -0.0054     -0.0000      0.0063      0.0042
        46        -0.0447     -0.0062     -0.0000      0.0509      0.0340
        47        -0.0768     -0.1068     -0.0000      0.1836      0.1224
[...]
    46  H    0.000141   0.388939  -0.040726   0.000000   0.000008   0.000001
    47  H    0.004259   0.388173  -0.040771   0.000000   0.000000   0.000000
    48  H    0.001203  -0.031199   0.386276   0.000000   0.000000   0.000000
    49  H    0.000009  -0.033570   0.387851   0.000000   0.000026   0.000001
    50  H   -0.000079  -0.026933   0.379455   0.000000   0.000005   0.000000
              31         32         33         34         35         36
     1  C    0.000449   0.000000  -0.000000  -0.000000   0.000003   0.004530
     2  C   -0.007654   0.000000   0.000000  -0.000000   0.000000   0.000354
     3  C   -0.041809   0.000000   0.000000  -0.000000   0.000000  -0.000018
     4  C    0.384128  -0.000000  -0.000000   0.000000   0.000000  -0.000000
     5  C    0.000008   0.000023  -0.000000   0.000002  -0.000122  -0.008061
     6  S   -0.000000  -0.002390  -0.000136   0.000018  -0.000284  -0.000019
     7  C    0.000000  -0.040903   0.004915   0.000875   0.005483  -0.000268
     8  C    0.000000   0.003214   0.000568   0.003254  -0.034809   0.004082
     9  N   -0.000000  -0.000115   0.000002  -0.000098  -0.008056  -0.032767
    10  C    0.000000   0.378161  -0.039466   0.004566   0.000323   0.000002
    11  C    0.000000  -0.032089   0.379380  -0.037049   0.003980   0.000000
    12  C   -0.000000   0.004117  -0.038200   0.375490  -0.035312  -0.000007
    13  C    0.000000   0.000652   0.004754  -0.035539   0.370701   0.000144
    14  C    0.000000   0.000001  -0.000000   0.000002   0.001344   0.389254
    15  C   -0.000000  -0.000000   0.000000  -0.000001  -0.000052  -0.039676
    16  C   -0.054066  -0.000000   0.000000  -0.000000  -0.000000   0.000000
    17  C   -0.005689   0.000000   0.000000   0.000000   0.000000   0.000000
    18  S    0.000002   0.000000   0.000000   0.000000   0.000000   0.000000
    19  C    0.000002   0.000000   0.000000   0.000000   0.000000  -0.000000
    20  C   -0.000064  -0.000000   0.000000   0.000000   0.000000   0.000000
    21  N    0.000364  -0.000000   0.000000   0.000000  -0.000000  -0.000000
    22  C   -0.000000   0.000000   0.000000   0.000000   0.000000   0.000000
    23  C    0.000000   0.000000   0.000000   0.000000   0.000000   0.000000
    24  C    0.000000   0.000000   0.000000   0.000000   0.000000   0.000000
    25  C    0.000001   0.000000   0.000000   0.000000   0.000000  -0.000000
    26  C   -0.001065   0.000000  -0.000000  -0.000000   0.000000   0.000000
    27  C    0.000457  -0.000000   0.000000   0.000000  -0.000000  -0.000000
    28  H    0.000008   0.000000   0.000000  -0.000000  -0.000000   0.000270
    29  H    0.004364   0.000000   0.000000  -0.000000   0.000000  -0.000000
    30  H    0.004978   0.000000  -0.000000  -0.000000  -0.000000   0.000001
    31  H    0.572481  -0.000000  -0.000000   0.000000  -0.000000  -0.000000
    32  H   -0.000000   0.551304  -0.005279  -0.000151   0.000013  -0.000000
    33  H   -0.000000  -0.005279   0.571058  -0.005422  -0.000144  -0.000000
    34  H    0.000000  -0.000151  -0.005422   0.568894  -0.005314  -0.000000
    35  H   -0.000000   0.000013  -0.000144  -0.005314   0.554265  -0.000009
    36  H   -0.000000  -0.000000  -0.000000  -0.000000  -0.000009   0.553857
    37  H    0.000000   0.000000  -0.000000   0.000005   0.001432  -0.028403
    38  H    0.000000   0.000000  -0.000000   0.000000  -0.000030  -0.005436
    39  H    0.000000   0.000000  -0.000000   0.000000   0.000034  -0.001260
    40  H    0.000000  -0.000000   0.000000  -0.000002   0.000808   0.004444
    41  H    0.004727  -0.000000  -0.000000   0.000000  -0.000000  -0.000000
    42  H    0.000000   0.000000   0.000000   0.000000   0.000000  -0.000000
    43  H   -0.000000   0.000000   0.000000   0.000000   0.000000   0.000000
    44  H    0.000000   0.000000   0.000000   0.000000   0.000000   0.000000
    45  H   -0.000000   0.000000   0.000000   0.000000   0.000000   0.000000
    46  H   -0.001189   0.000000   0.000000  -0.000000   0.000000   0.000000
    47  H    0.000206  -0.000000  -0.000000   0.000000   0.000000   0.000000
    48  H   -0.000186   0.000000  -0.000000   0.000000  -0.000000  -0.000000
    49  H    0.002911  -0.000000  -0.000000  -0.000000   0.000000   0.000000
    50  H    0.000251  -0.000000   0.000000  -0.000000   0.000000   0.000000
              37         38         39         40         41         42
     1  C    0.000006   0.001061  -0.000025   0.000029   0.000005  -0.000000
     2  C   -0.000013  -0.000121   0.000001   0.000002   0.000375   0.000000
     3  C    0.000000  -0.000006   0.000000  -0.000000  -0.008403   0.000000
     4  C   -0.000000  -0.000000   0.000000  -0.000000  -0.039526   0.000000
     5  C    0.005224   0.003184  -0.000093  -0.000134  -0.000000   0.000000
     6  S   -0.000247  -0.000098   0.000003   0.000010  -0.000000   0.000000
     7  C    0.000107   0.000005   0.000006  -0.000116   0.000000   0.000000
     8  C   -0.007791  -0.000170  -0.000037   0.002670   0.000000   0.000000
     9  N   -0.032800  -0.004674   0.003852  -0.004206  -0.000000   0.000000
    10  C   -0.000002  -0.000000   0.000000  -0.000004  -0.000000   0.000000
    11  C   -0.000009  -0.000000  -0.000000   0.000003   0.000000   0.000000
    12  C    0.000190   0.000001   0.000000  -0.000067   0.000000   0.000000
    13  C    0.004055   0.000014  -0.000062   0.001177  -0.000000   0.000000
    14  C    0.389641  -0.031756  -0.026943  -0.031500   0.000000   0.000000
    15  C   -0.039401   0.388277   0.379891   0.388070  -0.000000   0.000000
    16  C   -0.000000   0.000000  -0.000000   0.000000   0.382862   0.000001
    17  C    0.000000   0.000000  -0.000000   0.000000  -0.039095   0.000023
    18  S    0.000000  -0.000000   0.000000  -0.000000  -0.002962  -0.002515
    19  C   -0.000000   0.000000  -0.000000   0.000000   0.000192  -0.040486
    20  C    0.000000   0.000000   0.000000  -0.000000  -0.000085   0.003247
    21  N   -0.000000  -0.000000   0.000000  -0.000000   0.004077  -0.000118
    22  C    0.000000   0.000000   0.000000   0.000000  -0.000001   0.378148
    23  C    0.000000   0.000000   0.000000   0.000000   0.000000  -0.032143
    24  C    0.000000  -0.000000   0.000000   0.000000  -0.000000   0.004115
    25  C    0.000000   0.000000   0.000000   0.000000   0.000002   0.000643
    26  C    0.000000  -0.000000   0.000000  -0.000000  -0.000119   0.000001
    27  C   -0.000000   0.000000  -0.000000   0.000000  -0.000011  -0.000000
    28  H    0.000094   0.001399   0.000023  -0.000060   0.000001   0.000000
    29  H    0.000000   0.000001   0.000000  -0.000000   0.000010   0.000000
    30  H    0.000000   0.000000   0.000000   0.000000   0.004479  -0.000000
    31  H    0.000000   0.000000   0.000000   0.000000   0.004727   0.000000
    32  H    0.000000   0.000000   0.000000  -0.000000  -0.000000   0.000000
    33  H   -0.000000  -0.000000  -0.000000   0.000000  -0.000000   0.000000
    34  H    0.000005   0.000000   0.000000  -0.000002   0.000000   0.000000
    35  H    0.001432  -0.000030   0.000034   0.000808  -0.000000   0.000000
    36  H   -0.028403  -0.005436  -0.001260   0.004444  -0.000000  -0.000000
    37  H    0.551333   0.004412  -0.001386  -0.005162  -0.000000   0.000000
    38  H    0.004412   0.566876  -0.026421  -0.030059   0.000000  -0.000000
    39  H   -0.001386  -0.026421   0.563523  -0.026471  -0.000000   0.000000
    40  H   -0.005162  -0.030059  -0.026471   0.567114   0.000000   0.000000
    41  H   -0.000000   0.000000  -0.000000   0.000000   0.558920   0.000000
    42  H    0.000000  -0.000000   0.000000   0.000000   0.000000   0.549926
    43  H    0.000000   0.000000   0.000000   0.000000  -0.000000  -0.005255
    44  H    0.000000   0.000000   0.000000   0.000000   0.000000  -0.000150
    45  H    0.000000  -0.000000   0.000000   0.000000   0.000000   0.000013
    46  H    0.000000  -0.000000   0.000000  -0.000000  -0.000004  -0.000000
    47  H    0.000000  -0.000000   0.000000  -0.000000   0.000004   0.000000
    48  H    0.000000   0.000000  -0.000000  -0.000000   0.000000  -0.000000
    49  H    0.000000  -0.000000   0.000000  -0.000000  -0.000002   0.000000
    50  H    0.000000  -0.000000   0.000000  -0.000000   0.000000   0.000000
              43         44         45         46         47         48
     1  C    0.000000  -0.000000  -0.000000   0.000000   0.000000   0.000000
     2  C    0.000000  -0.000000   0.000000  -0.000029   0.000000   0.000000
     3  C   -0.000000   0.000000  -0.000000   0.000138  -0.000007  -0.000001
     4  C    0.000000  -0.000000  -0.000000   0.004199   0.000102   0.000074
     5  C    0.000000   0.000000   0.000000   0.000000   0.000000  -0.000000
     6  S    0.000000  -0.000000   0.000000  -0.000000  -0.000000   0.000000
     7  C    0.000000   0.000000   0.000000   0.000000   0.000000   0.000000
     8  C    0.000000   0.000000  -0.000000   0.000000   0.000000  -0.000000
     9  N    0.000000   0.000000   0.000000  -0.000000  -0.000000   0.000000
    10  C    0.000000   0.000000   0.000000   0.000000  -0.000000   0.000000
    11  C    0.000000   0.000000   0.000000  -0.000000  -0.000000   0.000000
    12  C    0.000000   0.000000   0.000000  -0.000000  -0.000000   0.000000
    13  C    0.000000   0.000000   0.000000   0.000000   0.000000  -0.000000
    14  C    0.000000   0.000000  -0.000000  -0.000000  -0.000000   0.000000
    15  C    0.000000   0.000000   0.000000  -0.000000  -0.000000  -0.000000
    16  C   -0.000000  -0.000000   0.000004   0.003044   0.000350  -0.000008
    17  C    0.000000   0.000002  -0.000107  -0.004355   0.003779  -0.000131
    18  S   -0.000136   0.000019  -0.000284   0.000134  -0.000228   0.000013
    19  C    0.004923   0.000871   0.005474  -0.000228   0.000171  -0.000095
    20  C    0.000570   0.003251  -0.034479   0.004116  -0.006475   0.002318
    21  N    0.000001  -0.000097  -0.008199  -0.036550  -0.034863  -0.004250
    22  C   -0.039339   0.004546   0.000317   0.000003  -0.000013  -0.000004
    23  C    0.379386  -0.036893   0.003957   0.000000  -0.000010   0.000003
    24  C   -0.038090   0.375576  -0.035065  -0.000008   0.000141  -0.000074
    25  C    0.004744  -0.035388   0.370599   0.000141   0.004259   0.001203
    26  C   -0.000000   0.000003   0.001903   0.388939   0.388173  -0.031199
    27  C    0.000000  -0.000001  -0.000357  -0.040726  -0.040771   0.386276
    28  H   -0.000000  -0.000000   0.000000   0.000000   0.000000   0.000000
    29  H    0.000000   0.000000   0.000000   0.000008   0.000000   0.000000
    30  H   -0.000000   0.000000  -0.000000   0.000001   0.000000   0.000000
    31  H   -0.000000   0.000000  -0.000000  -0.001189   0.000206  -0.000186
    32  H    0.000000   0.000000   0.000000   0.000000  -0.000000   0.000000
    33  H    0.000000   0.000000   0.000000   0.000000  -0.000000  -0.000000
    34  H    0.000000   0.000000   0.000000  -0.000000   0.000000   0.000000
    35  H    0.000000   0.000000   0.000000   0.000000   0.000000  -0.000000
    36  H    0.000000   0.000000   0.000000   0.000000   0.000000  -0.000000
    37  H    0.000000   0.000000   0.000000   0.000000   0.000000   0.000000
    38  H    0.000000   0.000000  -0.000000  -0.000000  -0.000000   0.000000
    39  H    0.000000   0.000000   0.000000   0.000000   0.000000  -0.000000
    40  H    0.000000   0.000000   0.000000  -0.000000  -0.000000  -0.000000
    41  H   -0.000000   0.000000   0.000000  -0.000004   0.000004   0.000000
    42  H   -0.005255  -0.000150   0.000013  -0.000000   0.000000  -0.000000
    43  H    0.569503  -0.005400  -0.000143  -0.000000  -0.000000   0.000000
    44  H   -0.005400   0.567287  -0.005298  -0.000000   0.000003  -0.000002
    45  H   -0.000143  -0.005298   0.551877   0.000014   0.001024   0.001367
    46  H   -0.000000  -0.000000   0.000014   0.553984  -0.025692   0.004455
    47  H   -0.000000   0.000003   0.001024  -0.025692   0.551842  -0.005110
    48  H    0.000000  -0.000002   0.001367   0.004455  -0.005110   0.566842
    49  H   -0.000000   0.000000  -0.000050  -0.005136   0.004451  -0.028762
    50  H   -0.000000  -0.000000   0.000078  -0.001363  -0.001189  -0.026556
              49         50
     1  C   -0.000000   0.000000
     2  C   -0.000001  -0.000001
     3  C   -0.000008  -0.000003
     4  C    0.000012   0.000008
     5  C   -0.000000  -0.000000
     6  S    0.000000  -0.000000
     7  C   -0.000000  -0.000000
     8  C   -0.000000   0.000000
     9  N    0.000000  -0.000000
    10  C   -0.000000  -0.000000
    11  C    0.000000  -0.000000
    12  C    0.000000  -0.000000
    13  C   -0.000000   0.000000
    14  C   -0.000000  -0.000000
    15  C    0.000000  -0.000000
    16  C   -0.000092  -0.000012
    17  C    0.001785  -0.000119
    18  S   -0.000070   0.000006
    19  C    0.000004   0.000006
    20  C   -0.000068   0.000011
    21  N   -0.003079   0.003735
    22  C   -0.000000  -0.000000
    23  C   -0.000000   0.000000
    24  C    0.000000  -0.000001
    25  C    0.000009  -0.000079
    26  C   -0.033570  -0.026933
    27  C    0.387851   0.379455
    28  H    0.000000   0.000000
    29  H    0.000026   0.000005
    30  H    0.000001   0.000000
    31  H    0.002911   0.000251
    32  H   -0.000000  -0.000000
    33  H   -0.000000   0.000000
    34  H   -0.000000  -0.000000
    35  H    0.000000   0.000000
    36  H    0.000000   0.000000
    37  H    0.000000   0.000000
    38  H   -0.000000  -0.000000
    39  H    0.000000   0.000000
    40  H   -0.000000  -0.000000
    41  H   -0.000002   0.000000
    42  H    0.000000   0.000000
    43  H   -0.000000  -0.000000
    44  H    0.000000  -0.000000
    45  H   -0.000050   0.000078
    46  H   -0.005136  -0.001363
    47  H    0.004451  -0.001189
    48  H   -0.028762  -0.026556
    49  H    0.563579  -0.026183
    50  H   -0.026183   0.561990
 Mulliken charges:
               1
     1  C   -0.151065
     2  C   -0.082562
     3  C   -0.132034
     4  C   -0.048537
     5  C    0.120311
     6  S    0.280983
     7  C   -0.190261
     8  C    0.360505
     9  N   -0.524775
    10  C   -0.132659
    11  C   -0.093544
    12  C   -0.126213
    13  C   -0.102826
    14  C   -0.080895
    15  C   -0.330701
    16  C   -0.163024
    17  C    0.125446
    18  S    0.284213
    19  C   -0.188645
    20  C    0.357242
    21  N   -0.518884
    22  C   -0.131363
    23  C   -0.091336
    24  C   -0.126311
    25  C   -0.099852
    26  C   -0.088931
    27  C   -0.330461
    28  H    0.145808
    29  H    0.131062
    30  H    0.114805
    31  H    0.136387
    32  H    0.143441
    33  H    0.127968
    34  H    0.130470
    35  H    0.145745
    36  H    0.158986
    37  H    0.158718
    38  H    0.133540
    39  H    0.135365
    40  H    0.133456
    41  H    0.134551
    42  H    0.144549
    43  H    0.129234
    44  H    0.131672
    45  H    0.147355
    46  H    0.156103
    47  H    0.159852
    48  H    0.133827
    49  H    0.136392
    50  H    0.136893
 Sum of Mulliken charges =   1.00000
 Mulliken charges with hydrogens summed into heavy atoms:
               1
     1  C   -0.005257
     2  C    0.048501
     3  C   -0.017228
     4  C    0.087849
     5  C    0.120311
     6  S    0.280983
     7  C   -0.190261
     8  C    0.360505
     9  N   -0.524775
    10  C    0.010782
    11  C    0.034424
    12  C    0.004256
    13  C    0.042919
    14  C    0.236809
    15  C    0.071660
    16  C   -0.028473
    17  C    0.125446
    18  S    0.284213
    19  C   -0.188645
    20  C    0.357242
    21  N   -0.518884
    22  C    0.013186
    23  C    0.037898
    24  C    0.005361
    25  C    0.047503
    26  C    0.227024
    27  C    0.076651
 Electronic spatial extent (au):  <R**2>=          23482.2322
 Charge=              1.0000 electrons
 Dipole moment (field-independent basis, Debye):
    X=             -1.0450    Y=             -0.1033    Z=             -1.0367  Tot=              1.4756
 Quadrupole moment (field-independent basis, Debye-Ang):
   XX=             -9.7300   YY=           -135.3875   ZZ=           -176.4818
   XY=            -21.1201   XZ=              1.0688   YZ=             -0.8832
 Traceless Quadrupole moment (field-independent basis, Debye-Ang):
   XX=             97.4698   YY=            -28.1877   ZZ=            -69.2820
   XY=            -21.1201   XZ=              1.0688   YZ=             -0.8832
 Octapole moment (field-independent basis, Debye-Ang**2):
  XXX=            -39.7266  YYY=             -6.1755  ZZZ=             -2.1633  XYY=            -33.9189
  XXY=            -14.4395  XXZ=              6.8188  XZZ=             -1.6278  YZZ=              2.1501
  YYZ=             -3.7136  XYZ=             29.7640
 Hexadecapole moment (field-independent basis, Debye-Ang**3):
 XXXX=         -19563.5141 YYYY=          -2382.7400 ZZZZ=           -326.5674 XXXY=           -322.3894
 XXXZ=            206.3148 YYYX=           -108.1026 YYYZ=            -14.0427 ZZZX=             -4.4482
 ZZZY=              3.9418 XXYY=          -4270.7707 XXZZ=          -5228.9643 YYZZ=           -509.8282
 XXYZ=            -24.5510 YYXZ=            -18.1519 ZZXY=            -48.6854
 N-N= 2.425764353859D+03 E-N=-9.034558400653D+03  KE= 1.783576532531D+03
 Unable to Open any file for archive entry.
 1\1\GINC-ZCWANG-VIRTUAL-MACHINE\SP\RB3LYP TD-FC\6-31G(d,p)\C23H23N2S2(
 1+)\ZCWANG\01-Nov-2023\0\\# td=(nstates=70) b3lyp/6-31g(d,p) scrf(smd,
  solvent=ethanol)\\A-3\\1,1\C,0,-2.428041,1.066524,-0.253176\C,0,-1.16
 3701,0.479343,-0.188922\C,0,0.041805,1.173916,-0.256816\C,0,1.28645,0.
 541332,-0.181046\C,0,-3.632364,0.360929,-0.172103\S,0,-3.731682,-1.381
 24,0.072853\C,0,-5.492381,-1.31615,0.079346\C,0,-5.937414,0.002523,-0.
 10246\N,0,-4.878726,0.909623,-0.261587\C,0,-6.386349,-2.371189,0.24069
 8\C,0,-7.751214,-2.085245,0.223608\C,0,-8.201765,-0.770406,0.05133\C,0
 ,-7.306986,0.285734,-0.111525\C,0,-5.109277,2.349928,-0.473641\C,0,-5.
 164583,3.142776,0.833251\C,0,2.499506,1.22923,-0.203687\C,0,3.82211,0.
 764058,-0.127091\S,0,5.094002,1.944187,0.17203\C,0,6.326179,0.693711,0
 .140374\C,0,5.740783,-0.561555,-0.088266\N,0,4.346445,-0.488644,-0.256
 376\C,0,7.702092,0.835001,0.309547\C,0,8.493059,-0.31093,0.250826\C,0,
 7.913914,-1.567173,0.028296\C,0,6.538273,-1.709565,-0.142327\C,0,3.573
 454,-1.67863,-0.651238\C,0,3.11126,-2.522112,0.538719\H,0,-2.480232,2.
 144966,-0.359543\H,0,-1.101764,-0.60405,-0.075964\H,0,0.014895,2.25675
 3,-0.370616\H,0,1.271155,-0.53799,-0.061902\H,0,-6.030956,-3.387372,0.
 377927\H,0,-8.46785,-2.890478,0.348789\H,0,-9.267265,-0.563876,0.04669
 4\H,0,-7.675558,1.298131,-0.23269\H,0,-4.320988,2.718242,-1.133807\H,0
 ,-6.04347,2.442277,-1.031819\H,0,-4.221825,3.066705,1.383681\H,0,-5.35
 0379,4.199206,0.614515\H,0,-5.968923,2.780771,1.480961\H,0,2.426074,2.
 31429,-0.229676\H,0,8.144449,1.810753,0.482525\H,0,9.567045,-0.22672,0
 .381606\H,0,8.54404,-2.450028,-0.00972\H,0,6.108776,-2.691785,-0.30376
 2\H,0,2.735494,-1.334144,-1.259472\H,0,4.216087,-2.264286,-1.313807\H,
 0,3.96372,-2.884064,1.121248\H,0,2.464779,-1.9518,1.212975\H,0,2.55269
 2,-3.391803,0.177306\\Version=ES64L-G16RevC.02\State=1-A\HF=-1796.0961
 684\RMSD=6.681e-09\PG=C01 [X(C23H23N2S2)]\\@
 The archive entry for this job was punched.


 IT WAS A GAME, A VERY INTERESTING GAME ONE COULD
 PLAY.  WHENEVER ONE SOLVED ONE OF THE LITTLE PROBLEMS,
 ONE COULD WRITE A PAPER ABOUT IT.  IT WAS VERY EASY IN
 THOSE DAYS FOR ANY SECOND-RATE PHYSICIST TO DO
 FIRST-RATE WORK.  THERE HAS NOT BEEN SUCH A GLORIOUS
 TIME SINCE.  IT IS VERY DIFFICULT NOW FOR A FIRST-RATE
 PHYSICIST TO DO SECOND-RATE WORK.
     P.A.M. DIRAC, ON THE EARLY DAYS OF QUANTUM MECHANICS
                   DIRECTIONS IN PHYSICS, 1978, P. 7
 Job cpu time:       1 days 16 hours 12 minutes 18.5 seconds.
 Elapsed time:       0 days  2 hours 38 minutes 32.1 seconds.
 File lengths (MBytes):  RWF=   8707 Int=      0 D2E=      0 Chk=    641 Scr=      1
 Normal termination of Gaussian 16 at Wed Nov  1 15:39:37 2023.
