 Entering Gaussian System, Link 0=g16
 Initial command:
 /nfs-share/home/2100011873/Gaussian16_AVX2/g16/l1.exe "/nfs-share/home/2100011873/GaussTmp/Gau-74224.inp" -scrdir="/nfs-share/home/2100011873/GaussTmp/"
 Entering Link 1 = /nfs-share/home/2100011873/Gaussian16_AVX2/g16/l1.exe PID=     74225.
  
 Copyright (c) 1988-2021, Gaussian, Inc.  All Rights Reserved.
  
 This is part of the Gaussian(R) 16 program.  It is based on
 the Gaussian(R) 09 system (copyright 2009, Gaussian, Inc.),
 the Gaussian(R) 03 system (copyright 2003, Gaussian, Inc.),
 the Gaussian(R) 98 system (copyright 1998, Gaussian, Inc.),
 the Gaussian(R) 94 system (copyright 1995, Gaussian, Inc.),
 the Gaussian 92(TM) system (copyright 1992, Gaussian, Inc.),
 the Gaussian 90(TM) system (copyright 1990, Gaussian, Inc.),
 the Gaussian 88(TM) system (copyright 1988, Gaussian, Inc.),
 the Gaussian 86(TM) system (copyright 1986, Carnegie Mellon
 University), and the Gaussian 82(TM) system (copyright 1983,
 Carnegie Mellon University). Gaussian is a federally registered
 trademark of Gaussian, Inc.
  
 This software contains proprietary and confidential information,
 including trade secrets, belonging to Gaussian, Inc.
  
 This software is provided under written license and may be
 used, copied, transmitted, or stored only in accord with that
 written license.
  
 The following legend is applicable only to US Government
 contracts under FAR:
  
                    RESTRICTED RIGHTS LEGEND
  
 Use, reproduction and disclosure by the US Government is
 subject to restrictions as set forth in subparagraphs (a)
 and (c) of the Commercial Computer Software - Restricted
 Rights clause in FAR 52.227-19.
  
 Gaussian, Inc.
 340 Quinnipiac St., Bldg. 40, Wallingford CT 06492
  
  
 ---------------------------------------------------------------
 Warning -- This program may not be used in any manner that
 competes with the business of Gaussian, Inc. or will provide
 assistance to any competitor of Gaussian, Inc.  The licensee
 of this program is prohibited from giving any competitor of
 Gaussian, Inc. access to this program.  By using this program,
 the user acknowledges that Gaussian, Inc. is engaged in the
 business of creating and licensing software in the field of
 computational chemistry and represents and warrants to the
 licensee that it is not a competitor of Gaussian, Inc. and that
 it will not use this program in any manner prohibited above.
 ---------------------------------------------------------------
  

 Cite this work as:
 Gaussian 16, Revision C.02,
 M. J. Frisch, G. W. Trucks, H. B. Schlegel, G. E. Scuseria, 
 M. A. Robb, J. R. Cheeseman, G. Scalmani, V. Barone, 
 G. A. Petersson, H. Nakatsuji, X. Li, M. Caricato, A. V. Marenich, 
 J. Bloino, B. G. Janesko, R. Gomperts, B. Mennucci, H. P. Hratchian, 
 J. V. Ortiz, A. F. Izmaylov, J. L. Sonnenberg, D. Williams-Young, 
 F. Ding, F. Lipparini, F. Egidi, J. Goings, B. Peng, A. Petrone, 
 T. Henderson, D. Ranasinghe, V. G. Zakrzewski, J. Gao, N. Rega, 
 G. Zheng, W. Liang, M. Hada, M. Ehara, K. Toyota, R. Fukuda, 
 J. Hasegawa, M. Ishida, T. Nakajima, Y. Honda, O. Kitao, H. Nakai, 
 T. Vreven, K. Throssell, J. A. Montgomery, Jr., J. E. Peralta, 
 F. Ogliaro, M. J. Bearpark, J. J. Heyd, E. N. Brothers, K. N. Kudin, 
 V. N. Staroverov, T. A. Keith, R. Kobayashi, J. Normand, 
 K. Raghavachari, A. P. Rendell, J. C. Burant, S. S. Iyengar, 
 J. Tomasi, M. Cossi, J. M. Millam, M. Klene, C. Adamo, R. Cammi, 
 J. W. Ochterski, R. L. Martin, K. Morokuma, O. Farkas, 
 J. B. Foresman, and D. J. Fox, Gaussian, Inc., Wallingford CT, 2019.
 
 ******************************************
 Gaussian 16:  ES64L-G16RevC.02  7-Dec-2021
                 3-Nov-2023 
 ******************************************
 %nprocshared=32
 Will use up to   32 processors via shared memory.
 %mem=128GB
 ------------------------------------------------------------
 # td=(nstates=150) b3lyp/6-311+g* scrf(smd, solvent=ethanol)
 ------------------------------------------------------------
 1/38=1,172=1/1;
 2/12=2,17=6,18=5,40=1/2;
 3/5=4,6=6,7=11,11=9,25=1,30=1,70=32201,72=4,74=-5/1,2,3,8;
 4//1;
 5/5=2,38=5,53=4/2;
 8/6=1,10=2,108=150/1;
 9/41=150,42=1,70=2/14;
 6/7=2,8=2,9=2,10=2/1;
 99/5=1,9=1/99;
 ---
 A-4
 ---
 Symbolic Z-matrix:
 Charge =  1 Multiplicity = 1
 C                    -3.66371  -1.05195  -0.11156 
 C                    -2.38964  -0.47998  -0.08346 
 C                    -1.19497  -1.195    -0.06404 
 C                     0.05835  -0.57832  -0.03561 
 C                    -4.85534  -0.32376  -0.12489 
 S                    -4.92666   1.43671  -0.06062 
 C                    -6.68823   1.40203  -0.08329 
 C                    -7.15496   0.07936  -0.13945 
 N                    -6.11186  -0.85727  -0.18359 
 C                    -7.56515   2.4827   -0.04892 
 C                    -8.93496   2.22022  -0.06579 
 C                    -9.40707   0.90276  -0.11322 
 C                    -8.52936  -0.17953  -0.14882 
 C                    -6.36628  -2.30687  -0.24831 
 C                    -6.46714  -2.95588   1.13326 
 C                     1.28216  -1.24609  -0.01605 
 C                     2.51113  -0.58289   0.01194 
 C                     3.74122  -1.24435  -0.00844 
 C                     5.05244  -0.74902   0.00881 
 S                     6.36259  -1.86699  -0.36529 
 C                     7.56298  -0.60081  -0.16552 
 C                     6.94102   0.61236   0.16985 
 N                     5.54483   0.4953    0.28326 
 C                     8.94627  -0.69554  -0.30211 
 C                     9.70836   0.45414  -0.1007 
 C                     9.09298   1.66866   0.22877 
 C                     7.70945   1.76455   0.3665 
 C                     4.73281   1.62303   0.77014 
 C                     4.28228   2.56989  -0.34424 
 H                    -3.73183  -2.13483  -0.11343 
 H                    -2.31025   0.60799  -0.07629 
 H                    -1.23762  -2.28343  -0.07261 
 H                     0.07916   0.51298  -0.02766 
 H                    -7.19294   3.50135  -0.00844 
 H                    -9.63821   3.04629  -0.03843 
 H                    -10.47604   0.71486  -0.1197 
 H                    -8.91454  -1.19267  -0.17489 
 H                    -7.28921  -2.44204  -0.81662 
 H                    -5.57073  -2.7575   -0.84565 
 H                    -6.66636  -4.02676   1.02338 
 H                    -5.53664  -2.83556   1.69652 
 H                    -7.28005  -2.51465   1.718 
 H                     1.27987  -2.33528  -0.02423 
 H                     2.47239   0.50228   0.01364 
 H                     3.69108  -2.32677  -0.1054 
 H                     9.41663  -1.63929  -0.55871 
 H                     10.78759   0.40544  -0.2035 
 H                     9.70031   2.55586   0.37729 
 H                     7.25129   2.71614   0.61119 
 H                     3.88711   1.20264   1.31689 
 H                     5.34278   2.15493   1.50515 
 H                     3.66872   2.05491  -1.08995 
 H                     3.6925    3.38719   0.08394 
 H                     5.14149   3.00595  -0.86259 
 
 Stoichiometry    C25H25N2S2(1+)
 Framework group  C1[X(C25H25N2S2)]
 Deg. of freedom   156
 Full point group                 C1      NOp   1
 Largest Abelian subgroup         C1      NOp   1
 Largest concise Abelian subgroup C1      NOp   1
                         Standard orientation:                         
 ---------------------------------------------------------------------
 Center     Atomic      Atomic             Coordinates (Angstroms)
 Number     Number       Type             X           Y           Z
 ---------------------------------------------------------------------
      1          6           0       -3.663712   -1.051948   -0.111557
      2          6           0       -2.389638   -0.479979   -0.083458
      3          6           0       -1.194967   -1.195004   -0.064041
      4          6           0        0.058349   -0.578322   -0.035613
      5          6           0       -4.855344   -0.323764   -0.124892
      6         16           0       -4.926662    1.436711   -0.060618
      7          6           0       -6.688233    1.402029   -0.083292
      8          6           0       -7.154955    0.079357   -0.139452
      9          7           0       -6.111858   -0.857268   -0.183590
     10          6           0       -7.565153    2.482703   -0.048916
     11          6           0       -8.934956    2.220220   -0.065794
     12          6           0       -9.407072    0.902760   -0.113224
     13          6           0       -8.529361   -0.179533   -0.148820
     14          6           0       -6.366284   -2.306872   -0.248314
     15          6           0       -6.467137   -2.955883    1.133259
     16          6           0        1.282162   -1.246091   -0.016052
     17          6           0        2.511127   -0.582889    0.011938
     18          6           0        3.741215   -1.244345   -0.008435
     19          6           0        5.052439   -0.749020    0.008808
     20         16           0        6.362590   -1.866987   -0.365292
     21          6           0        7.562983   -0.600806   -0.165520
     22          6           0        6.941017    0.612357    0.169846
     23          7           0        5.544832    0.495298    0.283261
     24          6           0        8.946272   -0.695535   -0.302110
     25          6           0        9.708364    0.454142   -0.100703
     26          6           0        9.092982    1.668657    0.228770
     27          6           0        7.709445    1.764545    0.366500
     28          6           0        4.732809    1.623027    0.770139
     29          6           0        4.282282    2.569892   -0.344236
     30          1           0       -3.731831   -2.134826   -0.113428
     31          1           0       -2.310249    0.607987   -0.076294
     32          1           0       -1.237617   -2.283434   -0.072611
     33          1           0        0.079156    0.512977   -0.027655
     34          1           0       -7.192939    3.501353   -0.008437
     35          1           0       -9.638205    3.046285   -0.038434
     36          1           0      -10.476042    0.714855   -0.119701
     37          1           0       -8.914544   -1.192671   -0.174894
     38          1           0       -7.289207   -2.442036   -0.816617
     39          1           0       -5.570728   -2.757498   -0.845647
     40          1           0       -6.666359   -4.026758    1.023381
     41          1           0       -5.536643   -2.835556    1.696522
     42          1           0       -7.280055   -2.514652    1.717995
     43          1           0        1.279871   -2.335280   -0.024232
     44          1           0        2.472390    0.502280    0.013643
     45          1           0        3.691082   -2.326769   -0.105404
     46          1           0        9.416627   -1.639291   -0.558710
     47          1           0       10.787594    0.405440   -0.203502
     48          1           0        9.700309    2.555856    0.377290
     49          1           0        7.251286    2.716142    0.611187
     50          1           0        3.887111    1.202637    1.316886
     51          1           0        5.342782    2.154926    1.505154
     52          1           0        3.668719    2.054906   -1.089954
     53          1           0        3.692500    3.387191    0.083941
     54          1           0        5.141488    3.005946   -0.862588
 ---------------------------------------------------------------------
 Rotational constants (GHZ):           0.5052897           0.0306476           0.0290656
 Standard basis: 6-311+G(d) (5D, 7F)
 There are   758 symmetry adapted cartesian basis functions of A   symmetry.
 There are   729 symmetry adapted basis functions of A   symmetry.
   729 basis functions,  1197 primitive gaussians,   758 cartesian basis functions
   110 alpha electrons      110 beta electrons
       nuclear repulsion energy      2585.8618479399 Hartrees.
 NAtoms=   54 NActive=   54 NUniq=   54 SFac= 1.00D+00 NAtFMM=   60 NAOKFM=F Big=F
 Integral buffers will be    131072 words long.
 Regular integral format.
 Two-electron integral symmetry is turned on.
 ------------------------------------------------------------------------------
 Polarizable Continuum Model (PCM)
 =================================
 Model                : PCM.
 Atomic radii         : SMD-Coulomb.
 Polarization charges : Total charges.
 Charge compensation  : None.
 Solution method      : On-the-fly selection.
 Cavity type          : VdW (van der Waals Surface) (Alpha=1.000).
 Cavity algorithm     : GePol (No added spheres)
                        Default sphere list used, NSphG=   54.
                        Lebedev-Laikov grids with approx.  5.0 points / Ang**2.
                        Smoothing algorithm: York/Karplus (Gamma=1.0000).
                        Polarization charges: spherical gaussians, with
                                              point-specific exponents (IZeta= 3).
                        Self-potential: point-specific (ISelfS= 7).
                        Self-field    : sphere-specific E.n sum rule (ISelfD= 2).
 Solvent              : Ethanol, Eps=  24.852000 Eps(inf)=   1.852593
 ------------------------------------------------------------------------------
 ------------------------------------------------------------------------------
 Atomic radii for non-electrostatic terms: SMD-CDS.
 ------------------------------------------------------------------------------
 Nuclear repulsion after PCM non-electrostatic terms =     2585.8550298034 Hartrees.
 One-electron integrals computed using PRISM.
 NBasis=   729 RedAO= T EigKep=  1.04D-06  NBF=   729
 NBsUse=   723 1.00D-06 EigRej=  6.52D-07 NBFU=   723
 ExpMin= 4.05D-02 ExpMax= 9.34D+04 ExpMxC= 3.17D+03 IAcc=3 IRadAn=         5 AccDes= 0.00D+00
 Harris functional with IExCor=  402 and IRadAn=       5 diagonalized for initial guess.
 HarFok:  IExCor=  402 AccDes= 0.00D+00 IRadAn=         5 IDoV= 1 UseB2=F ITyADJ=14
 ICtDFT=  3500011 ScaDFX=  1.000000  1.000000  1.000000  1.000000
 FoFCou: FMM=F IPFlag=           0 FMFlag=      100000 FMFlg1=           0
         NFxFlg=           0 DoJE=T BraDBF=F KetDBF=T FulRan=T
         wScrn=  0.000000 ICntrl=       500 IOpCl=  0 I1Cent=   200000004 NGrid=           0
         NMat0=    1 NMatS0=      1 NMatT0=    0 NMatD0=    1 NMtDS0=    0 NMtDT0=    0
 Petite list used in FoFCou.
 Requested convergence on RMS density matrix=1.00D-08 within 128 cycles.
 Requested convergence on MAX density matrix=1.00D-06.
 Requested convergence on             energy=1.00D-06.
 No special actions if energy rises.
 Inv3:  Mode=1 IEnd=    53425200.
 Iteration    1 A*A^-1 deviation from unit magnitude is 3.55D-15 for    321.
 Iteration    1 A*A^-1 deviation from orthogonality  is 2.22D-15 for   2814    520.
 Iteration    1 A^-1*A deviation from unit magnitude is 3.33D-15 for    321.
 Iteration    1 A^-1*A deviation from orthogonality  is 3.70D-15 for    636    388.
 Error on total polarization charges =  0.07509
 SCF Done:  E(RB3LYP) =  -1873.75070991     A.U. after   15 cycles
            NFock= 15  Conv=0.85D-08     -V/T= 2.0033
 SMD-CDS (non-electrostatic) energy       (kcal/mol) =      -4.28
 (included in total energy above)
 DoSCS=F DFT=T ScalE2(SS,OS)=  1.000000  1.000000
 ExpMin= 4.05D-02 ExpMax= 9.34D+04 ExpMxC= 3.17D+03 IAcc=3 IRadAn=         5 AccDes= 0.00D+00
 HarFok:  IExCor=  205 AccDes= 0.00D+00 IRadAn=         5 IDoV=-2 UseB2=F ITyADJ=14
 ICtDFT= 12500011 ScaDFX=  1.000000  1.000000  1.000000  1.000000
 GSVD:  LWork=       -1665 too small for GESVD, short by        7400 words or        7400 for optimal perf.
 Range of M.O.s used for correlation:    38   723
 NBasis=   729 NAE=   110 NBE=   110 NFC=    37 NFV=     0
 NROrb=    686 NOA=    73 NOB=    73 NVA=   613 NVB=   613

 **** Warning!!: The largest alpha MO coefficient is  0.16787499D+03


 **** Warning!!: The smallest alpha delta epsilon is  0.77470908D-01

 NEqPCM:  Using non-equilibrium solvation (IEInf=1, Eps=  24.8520, EpsInf=   1.8526)
 Inv3:  Mode=1 IEnd=    53425200.
 Iteration    1 A*A^-1 deviation from unit magnitude is 3.33D-15 for   3435.
 Iteration    1 A*A^-1 deviation from orthogonality  is 1.89D-15 for   2030   1791.
 Iteration    1 A^-1*A deviation from unit magnitude is 3.11D-15 for   3435.
 Iteration    1 A^-1*A deviation from orthogonality  is 2.47D-15 for   1749    718.
 Orbital symmetries:
       Occupied  (A) (A) (A) (A) (A) (A) (A) (A) (A) (A) (A) (A)
                 (A) (A) (A) (A) (A) (A) (A) (A) (A) (A) (A) (A)
                 (A) (A) (A) (A) (A) (A) (A) (A) (A) (A) (A) (A)
                 (A) (A) (A) (A) (A) (A) (A) (A) (A) (A) (A) (A)
                 (A) (A) (A) (A) (A) (A) (A) (A) (A) (A) (A) (A)
                 (A) (A) (A) (A) (A) (A) (A) (A) (A) (A) (A) (A)
                 (A) (A) (A) (A) (A) (A) (A) (A) (A) (A) (A) (A)
                 (A) (A) (A) (A) (A) (A) (A) (A) (A) (A) (A) (A)
                 (A) (A) (A) (A) (A) (A) (A) (A) (A) (A) (A) (A)
                 (A) (A)
       Virtual   (A) (A) (A) (A) (A) (A) (A) (A) (A) (A) (A) (A)
                 (A) (A) (A) (A) (A) (A) (A) (A) (A) (A) (A) (A)
                 (A) (A) (A) (A) (A) (A) (A) (A) (A) (A) (A) (A)
                 (A) (A) (A) (A) (A) (A) (A) (A) (A) (A) (A) (A)
                 (A) (A) (A) (A) (A) (A) (A) (A) (A) (A) (A) (A)
                 (A) (A) (A) (A) (A) (A) (A) (A) (A) (A) (A) (A)
                 (A) (A) (A) (A) (A) (A) (A) (A) (A) (A) (A) (A)
                 (A) (A) (A) (A) (A) (A) (A) (A) (A) (A) (A) (A)
                 (A) (A) (A) (A) (A) (A) (A) (A) (A) (A) (A) (A)
                 (A) (A) (A) (A) (A) (A) (A) (A) (A) (A) (A) (A)
                 (A) (A) (A) (A) (A) (A) (A) (A) (A) (A) (A) (A)
                 (A) (A) (A) (A) (A) (A) (A) (A) (A) (A) (A) (A)
                 (A) (A) (A) (A) (A) (A) (A) (A) (A) (A) (A) (A)
                 (A) (A) (A) (A) (A) (A) (A) (A) (A) (A) (A) (A)
                 (A) (A) (A) (A) (A) (A) (A) (A) (A) (A) (A) (A)
                 (A) (A) (A) (A) (A) (A) (A) (A) (A) (A) (A) (A)
                 (A) (A) (A) (A) (A) (A) (A) (A) (A) (A) (A) (A)
                 (A) (A) (A) (A) (A) (A) (A) (A) (A) (A) (A) (A)
                 (A) (A) (A) (A) (A) (A) (A) (A) (A) (A) (A) (A)
                 (A) (A) (A) (A) (A) (A) (A) (A) (A) (A) (A) (A)
                 (A) (A) (A) (A) (A) (A) (A) (A) (A) (A) (A) (A)
                 (A) (A) (A) (A) (A) (A) (A) (A) (A) (A) (A) (A)
                 (A) (A) (A) (A) (A) (A) (A) (A) (A) (A) (A) (A)
                 (A) (A) (A) (A) (A) (A) (A) (A) (A) (A) (A) (A)
                 (A) (A) (A) (A) (A) (A) (A) (A) (A) (A) (A) (A)
                 (A) (A) (A) (A) (A) (A) (A) (A) (A) (A) (A) (A)
                 (A) (A) (A) (A) (A) (A) (A) (A) (A) (A) (A) (A)
                 (A) (A) (A) (A) (A) (A) (A) (A) (A) (A) (A) (A)
                 (A) (A) (A) (A) (A) (A) (A) (A) (A) (A) (A) (A)
                 (A) (A) (A) (A) (A) (A) (A) (A) (A) (A) (A) (A)
                 (A) (A) (A) (A) (A) (A) (A) (A) (A) (A) (A) (A)
                 (A) (A) (A) (A) (A) (A) (A) (A) (A) (A) (A) (A)
                 (A) (A) (A) (A) (A) (A) (A) (A) (A) (A) (A) (A)
                 (A) (A) (A) (A) (A) (A) (A) (A) (A) (A) (A) (A)
                 (A) (A) (A) (A) (A) (A) (A) (A) (A) (A) (A) (A)
                 (A) (A) (A) (A) (A) (A) (A) (A) (A) (A) (A) (A)
                 (A) (A) (A) (A) (A) (A) (A) (A) (A) (A) (A) (A)
                 (A) (A) (A) (A) (A) (A) (A) (A) (A) (A) (A) (A)
                 (A) (A) (A) (A) (A) (A) (A) (A) (A) (A) (A) (A)
                 (A) (A) (A) (A) (A) (A) (A) (A) (A) (A) (A) (A)
                 (A) (A) (A) (A) (A) (A) (A) (A) (A) (A) (A) (A)
                 (A) (A) (A) (A) (A) (A) (A) (A) (A) (A) (A) (A)
                 (A) (A) (A) (A) (A) (A) (A) (A) (A) (A) (A) (A)
                 (A) (A) (A) (A) (A) (A) (A) (A) (A) (A) (A) (A)
                 (A) (A) (A) (A) (A) (A) (A) (A) (A) (A) (A) (A)
                 (A) (A) (A) (A) (A) (A) (A) (A) (A) (A) (A) (A)
                 (A) (A) (A) (A) (A) (A) (A) (A) (A) (A) (A) (A)
                 (A) (A) (A) (A) (A) (A) (A) (A) (A) (A) (A) (A)
                 (A) (A) (A) (A) (A) (A) (A) (A) (A) (A) (A) (A)
                 (A) (A) (A) (A) (A) (A) (A) (A) (A) (A) (A) (A)
                 (A) (A) (A) (A) (A) (A) (A) (A) (A) (A) (A) (A)
                 (A)
   600 initial guesses have been made.
 Convergence on wavefunction:    0.001000000000000
 Iteration     1 Dimension   600 NMult     0 NNew    600
 CISAX will form   320 AO SS matrices at one time.
 New state      3 was old state      4
 New state      4 was old state      5
 New state      5 was old state      6
 New state      6 was old state      7
 New state      7 was old state     10
 New state      8 was old state      3
 New state      9 was old state     11
 New state     10 was old state      8
 New state     11 was old state      9
 New state     13 was old state     14
 New state     14 was old state     16
 New state     15 was old state     17
 New state     16 was old state     13
 New state     17 was old state     15
 New state     20 was old state     21
 New state     21 was old state     20
 New state     22 was old state     23
 New state     23 was old state     22
 New state     24 was old state     26
 New state     25 was old state     29
 New state     26 was old state     34
 New state     27 was old state     28
 New state     28 was old state     30
 New state     29 was old state     31
 New state     30 was old state     37
 New state     31 was old state     24
 New state     32 was old state     27
 New state     33 was old state     25
 New state     34 was old state     35
 New state     35 was old state     56
 New state     36 was old state     39
 New state     37 was old state     38
 New state     38 was old state     40
 New state     39 was old state     59
 New state     40 was old state     55
 New state     41 was old state     43
 New state     42 was old state     36
 New state     43 was old state     46
 New state     44 was old state     47
 New state     45 was old state     48
 New state     46 was old state     54
 New state     47 was old state     49
 New state     48 was old state     41
 New state     49 was old state     45
 New state     50 was old state     44
 New state     51 was old state     68
 New state     52 was old state     82
 New state     53 was old state     57
 New state     54 was old state     42
 New state     55 was old state     58
 New state     56 was old state     62
 New state     57 was old state     53
 New state     58 was old state     77
 New state     59 was old state     64
 New state     61 was old state     65
 New state     62 was old state     72
 New state     63 was old state     71
 New state     64 was old state     50
 New state     65 was old state     73
 New state     66 was old state     51
 New state     67 was old state     69
 New state     68 was old state     86
 New state     69 was old state     87
 New state     70 was old state     74
 New state     71 was old state     76
 New state     72 was old state     81
 New state     73 was old state     75
 New state     74 was old state     66
 New state     75 was old state     52
 New state     76 was old state     61
 No map to state     77
 New state     78 was old state     67
 New state     79 was old state     78
 New state     80 was old state     88
 New state     81 was old state     79
 New state     82 was old state     84
 New state     83 was old state     94
 New state     84 was old state     70
 New state     85 was old state     90
 New state     86 was old state     93
 New state     87 was old state    100
 New state     88 was old state     95
 New state     89 was old state    104
 New state     90 was old state     92
 New state     91 was old state     97
 New state     92 was old state     99
 New state     93 was old state     96
 New state     94 was old state     98
 New state     95 was old state    102
 New state     96 was old state     83
 New state     97 was old state    116
 New state     98 was old state    105
 New state     99 was old state    103
 New state    100 was old state    107
 New state    101 was old state     85
 New state    102 was old state     89
 New state    103 was old state    101
 New state    104 was old state    109
 New state    105 was old state    124
 New state    106 was old state    110
 New state    107 was old state    117
 New state    109 was old state    132
 New state    110 was old state    130
 New state    111 was old state    113
 New state    112 was old state    114
 New state    113 was old state    123
 New state    114 was old state    122
 New state    116 was old state    119
 New state    117 was old state    106
 New state    118 was old state    125
 New state    119 was old state    111
 New state    120 was old state    140
 New state    121 was old state    129
 New state    122 was old state    121
 New state    123 was old state    128
 New state    124 was old state    134
 New state    125 was old state    133
 New state    126 was old state    127
 New state    127 was old state    138
 New state    128 was old state    126
 New state    129 was old state    156
 New state    130 was old state    150
 New state    131 was old state    152
 New state    132 was old state    203
 New state    133 was old state    177
 New state    134 was old state    136
 New state    135 was old state    141
 New state    136 was old state    137
 New state    137 was old state    144
 New state    138 was old state    131
 New state    139 was old state    145
 New state    140 was old state    139
 New state    141 was old state    147
 New state    142 was old state    153
 New state    143 was old state    142
 New state    144 was old state    118
 New state    145 was old state    163
 New state    146 was old state    212
 New state    147 was old state    162
 New state    148 was old state    168
 New state    149 was old state    148
 New state    150 was old state    149
 Iteration     2 Dimension   900 NMult   600 NNew    300
 New state      5 was old state      8
 New state      6 was old state      5
 New state      7 was old state      6
 New state      8 was old state      7
 New state      9 was old state     10
 New state     10 was old state      9
 New state     15 was old state     16
 New state     16 was old state     15
 New state     22 was old state     23
 New state     23 was old state     22
 New state     26 was old state     27
 New state     27 was old state     26
 New state     30 was old state     32
 New state     31 was old state     33
 New state     32 was old state     30
 New state     33 was old state     31
 New state     35 was old state     40
 New state     36 was old state     38
 New state     37 was old state     35
 New state     38 was old state     36
 New state     39 was old state     37
 New state     40 was old state     44
 New state     41 was old state     42
 New state     42 was old state     39
 New state     43 was old state     41
 New state     44 was old state     43
 New state     45 was old state     46
 New state     46 was old state     54
 New state     47 was old state     45
 New state     48 was old state     57
 New state     49 was old state     47
 New state     50 was old state     61
 New state     51 was old state     49
 New state     52 was old state     48
 New state     53 was old state     51
 New state     54 was old state     50
 New state     55 was old state     52
 New state     56 was old state     53
 New state     57 was old state     55
 New state     58 was old state     56
 New state     59 was old state     58
 New state     60 was old state     59
 New state     61 was old state     60
 New state     62 was old state     70
 New state     63 was old state     62
 New state     64 was old state     63
 New state     65 was old state     67
 New state     66 was old state     64
 New state     67 was old state     65
 New state     68 was old state     66
 New state     70 was old state     68
 New state     71 was old state     78
 New state     72 was old state     74
 New state     73 was old state     71
 New state     74 was old state     72
 New state     75 was old state     73
 New state     77 was old state     83
 New state     78 was old state     75
 New state     79 was old state     77
 New state     80 was old state     82
 New state     81 was old state     79
 New state     82 was old state     80
 New state     83 was old state     81
 New state     84 was old state     85
 New state     85 was old state     91
 New state     86 was old state     84
 New state     87 was old state     86
 New state     88 was old state     87
 New state     89 was old state     88
 New state     90 was old state     89
 New state     91 was old state     90
 New state     92 was old state     96
 New state     93 was old state     92
 New state     94 was old state     93
 New state     95 was old state     94
 New state     96 was old state     95
 New state     97 was old state     99
 New state     98 was old state    110
 New state     99 was old state     97
 New state    101 was old state     98
 New state    102 was old state    111
 New state    103 was old state    101
 New state    105 was old state    103
 New state    106 was old state    102
 No map to state    107
 New state    108 was old state    105
 New state    109 was old state    107
 New state    110 was old state    106
 New state    111 was old state    109
 New state    112 was old state    108
 New state    113 was old state    112
 New state    114 was old state    117
 New state    115 was old state    114
 New state    116 was old state    113
 New state    117 was old state    115
 New state    118 was old state    116
 New state    119 was old state    123
 New state    120 was old state    119
 New state    121 was old state    120
 New state    122 was old state    118
 New state    123 was old state    129
 New state    124 was old state    122
 New state    125 was old state    121
 New state    126 was old state    144
 New state    127 was old state    124
 New state    128 was old state    125
 New state    129 was old state    126
 New state    130 was old state    128
 New state    131 was old state    130
 New state    132 was old state    131
 New state    134 was old state    139
 New state    135 was old state    132
 New state    136 was old state    134
 New state    137 was old state    154
 New state    138 was old state    151
 New state    139 was old state    135
 New state    140 was old state    136
 New state    141 was old state    137
 New state    142 was old state    138
 New state    143 was old state    140
 New state    144 was old state    142
 New state    145 was old state    141
 New state    146 was old state    143
 New state    147 was old state    145
 New state    148 was old state    146
 New state    149 was old state    155
 New state    150 was old state    147
 Iteration     3 Dimension  1200 NMult   900 NNew    300
 Iteration     4 Dimension  1492 NMult  1200 NNew    292
 Iteration     5 Dimension  1590 NMult  1492 NNew     98
 Iteration     6 Dimension  1594 NMult  1590 NNew      4
 ***********************************************************************
 Excited states from <AA,BB:AA,BB> singles matrix:
 ***********************************************************************
 
 Ground to excited state transition densities written to RWF  633
 Ground to excited state transition electric dipole moments (Au):
       state          X           Y           Z        Dip. S.      Osc.
         1         7.5337     -0.1970      0.0468     56.7979      2.8110
         2        -0.2897     -0.0396     -0.0028      0.0855      0.0067
         3        -0.3689     -0.6559      0.0027      0.5664      0.0499
         4        -0.1226      0.3405      0.0742      0.1365      0.0121
         5        -0.1265     -0.9545     -0.0009      0.9270      0.0830
         6        -0.6861     -0.1523     -0.0350      0.4951      0.0462
         7         0.0467      0.3804      0.1179      0.1608      0.0150
         8        -0.0415      0.0081     -0.0197      0.0022      0.0002
         9         0.1110     -0.2393     -0.0111      0.0697      0.0068
        10        -0.0416     -0.0177      0.0198      0.0024      0.0002
        11         0.0861     -0.3902     -0.0539      0.1626      0.0166
        12         0.1393     -0.0440     -0.0182      0.0217      0.0023
        13         0.0252      0.0383     -0.0169      0.0024      0.0003
        14        -0.0320      0.0958     -0.0004      0.0102      0.0012
        15         0.0314      0.0617      0.0385      0.0063      0.0007
        16        -0.1380     -0.1059     -0.0647      0.0344      0.0040
        17        -0.2963     -0.0031      0.0666      0.0922      0.0108
        18         0.0452      0.0138      0.0079      0.0023      0.0003
        19         0.0745      0.0727      0.0336      0.0120      0.0015
        20         0.0332      0.0444     -0.0316      0.0041      0.0005
        21         0.1146      0.0435      0.0498      0.0175      0.0022
        22         0.0861      0.1568      0.1077      0.0436      0.0055
        23         0.1243      0.0511     -0.0255      0.0187      0.0024
        24        -0.2461      0.0156     -0.0401      0.0624      0.0080
        25         0.1757     -0.0830     -0.0870      0.0453      0.0059
        26        -0.1732     -0.3063     -0.0464      0.1260      0.0164
        27         0.2695      0.4349      0.0344      0.2630      0.0343
        28        -0.5569     -0.0270      0.0386      0.3123      0.0407
        29        -0.2775      0.0781      0.0178      0.0834      0.0109
        30        -0.0212     -0.1164     -0.1512      0.0369      0.0048
        31        -0.0890     -0.5801     -0.1110      0.3567      0.0468
        32        -0.0403     -0.2042      0.0425      0.0451      0.0059
        33         0.0169      0.0878      0.0117      0.0081      0.0011
        34        -0.0354      0.0571     -0.0435      0.0064      0.0009
        35        -0.2725      0.5318      0.0701      0.3619      0.0486
        36        -0.0436     -0.2630     -0.0719      0.0762      0.0103
        37         0.0969      0.1758     -0.0498      0.0428      0.0058
        38        -0.1081      0.0512     -0.1256      0.0301      0.0041
        39        -0.2255      0.0710      0.0596      0.0595      0.0081
        40        -1.1706      0.0501      0.0280      1.3737      0.1888
        41        -0.3183     -0.2648      0.0494      0.1739      0.0240
        42         0.0025      0.0412     -0.0199      0.0021      0.0003
        43         0.1679      0.0011      0.0570      0.0314      0.0044
        44        -0.5965      0.1397      0.0405      0.3770      0.0534
        45        -0.7618      0.5812      0.0855      0.9254      0.1319
        46         0.1502      0.5143     -0.0071      0.2871      0.0410
        47         0.0014      0.0637      0.0096      0.0041      0.0006
        48         0.2361      0.0209      0.0514      0.0588      0.0084
        49        -0.0708      0.1043      0.0102      0.0160      0.0023
        50        -0.0641     -0.4313     -0.0294      0.1910      0.0277
        51         0.2572      0.2936     -0.1131      0.1651      0.0240
        52         0.0196     -0.0078      0.0096      0.0005      0.0001
        53         0.0899     -0.0108     -0.0262      0.0089      0.0013
        54         0.0275     -0.0236     -0.0093      0.0014      0.0002
        55        -0.0433      0.0056     -0.0067      0.0020      0.0003
        56        -0.0032     -0.0644      0.0282      0.0050      0.0007
        57        -0.1108      0.0908     -0.0098      0.0206      0.0031
        58        -0.0652      0.0811     -0.0556      0.0139      0.0021
        59        -0.1245      0.0117     -0.0612      0.0194      0.0029
        60         0.0501     -0.0255      0.0417      0.0049      0.0007
        61         0.0299     -0.1040      0.0605      0.0154      0.0023
        62        -0.0040     -0.1407      0.0018      0.0198      0.0030
        63        -0.2878     -0.3461     -0.0478      0.2049      0.0312
        64         0.0736     -0.0670      0.0063      0.0099      0.0015
        65        -1.0736     -0.6352     -0.0392      1.5576      0.2385
        66        -0.3220      0.1589     -0.0165      0.1292      0.0198
        67        -0.1219     -0.4227      0.0070      0.1936      0.0298
        68         0.3659     -0.0270      0.0712      0.1397      0.0215
        69         0.1137     -0.2965     -0.0835      0.1078      0.0166
        70        -0.4458      0.0332      0.2061      0.2423      0.0374
        71        -0.5018     -0.3580     -0.1970      0.4187      0.0647
        72         0.0238      0.4338      0.0548      0.1917      0.0297
        73         0.2821      0.0108     -0.0167      0.0800      0.0124
        74        -0.1273      0.0444     -0.1138      0.0311      0.0048
        75        -0.4268      0.0897     -0.0076      0.1903      0.0296
        76         0.2948     -0.0456     -0.0688      0.0937      0.0146
        77         0.7910      0.0487      0.1365      0.6467      0.1010
        78        -0.1783      0.1468     -0.1340      0.0713      0.0112
        79         0.2668      0.2867      0.0797      0.1597      0.0251
        80         0.0995      0.1640      0.0286      0.0376      0.0059
        81         0.0069      0.0576      0.0841      0.0104      0.0016
        82         0.0919     -0.0654      0.0044      0.0127      0.0020
        83         0.3437     -0.3250     -0.0538      0.2266      0.0359
        84         0.4089      0.0607      0.0319      0.1719      0.0274
        85        -0.7621      0.5268      0.0697      0.8632      0.1378
        86        -0.0649      0.1393      0.0727      0.0289      0.0046
        87        -0.0992      0.0377     -0.0018      0.0113      0.0018
        88         0.0218     -0.1454      0.0717      0.0267      0.0043
        89        -0.2013     -0.1775      0.0000      0.0720      0.0117
        90        -0.0080     -0.0546      0.0100      0.0031      0.0005
        91        -0.0607     -0.3108      0.0481      0.1026      0.0167
        92        -0.0145      0.3164      0.0298      0.1012      0.0165
        93        -0.0630     -0.0124      0.0452      0.0062      0.0010
        94         0.0466      0.1398      0.0766      0.0276      0.0045
        95        -0.0436     -0.0777     -0.0612      0.0117      0.0019
        96         0.0712     -0.0242     -0.1409      0.0255      0.0042
        97         0.0753      0.2953      0.0004      0.0929      0.0154
        98        -0.5273     -0.5228     -0.0830      0.5582      0.0927
        99        -0.5512      0.0453      0.0050      0.3060      0.0508
       100         0.1806     -0.0831     -0.1960      0.0779      0.0130
       101         0.1232     -0.1305     -0.0444      0.0342      0.0057
       102        -0.4816     -0.0873     -0.0984      0.2493      0.0415
       103        -0.0614      0.0937     -0.0620      0.0164      0.0027
       104        -0.0193     -0.0049      0.0552      0.0034      0.0006
       105        -0.0728     -0.0549      0.0762      0.0141      0.0024
       106        -0.1046      0.0928      0.0325      0.0206      0.0034
       107        -0.0065     -0.0620     -0.1252      0.0196      0.0033
       108         0.0738      0.0264     -0.0277      0.0069      0.0012
       109        -0.0560      0.0810     -0.0635      0.0137      0.0023
       110         0.0125     -0.0779     -0.0532      0.0091      0.0015
       111        -0.1712     -0.0342      0.0996      0.0404      0.0068
       112         0.0104      0.0019     -0.0073      0.0002      0.0000
       113         0.1663     -0.0195      0.1085      0.0398      0.0067
       114         0.0105      0.0164      0.0686      0.0051      0.0009
       115         0.2061     -0.0659      0.0273      0.0476      0.0081
       116         0.0116      0.0215      0.0934      0.0093      0.0016
       117         0.0395     -0.0077      0.1044      0.0125      0.0021
       118         0.0697      0.0607      0.1978      0.0477      0.0081
       119         0.0199      0.1443      0.0358      0.0225      0.0038
       120         0.0796      0.0644      0.0630      0.0144      0.0025
       121         0.0857      0.1628     -0.0153      0.0341      0.0058
       122        -0.0647     -0.0596      0.0552      0.0108      0.0018
       123         0.0901      0.0283      0.0948      0.0179      0.0031
       124        -0.1952      0.0283     -0.1181      0.0528      0.0091
       125        -0.1608     -0.0660     -0.0918      0.0386      0.0066
       126        -0.0097      0.0877      0.0006      0.0078      0.0013
       127         0.0023     -0.0008     -0.0131      0.0002      0.0000
       128         0.0621     -0.0449      0.0239      0.0064      0.0011
       129        -0.1051      0.0995      0.0435      0.0228      0.0040
       130         0.0923     -0.0248     -0.1678      0.0373      0.0065
       131        -0.0670      0.0232     -0.0056      0.0051      0.0009
       132        -0.0411     -0.1224     -0.0003      0.0167      0.0029
       133        -0.1112      0.0169      0.0360      0.0139      0.0024
       134        -0.0541      0.0705     -0.0266      0.0086      0.0015
       135         0.0205     -0.0729     -0.0042      0.0057      0.0010
       136         0.0431     -0.2515      0.0898      0.0732      0.0129
       137         0.0717     -0.2516      0.0269      0.0692      0.0122
       138         0.4563     -0.2281     -0.0330      0.2613      0.0460
       139         0.1079     -0.0626     -0.0016      0.0156      0.0027
       140        -0.0408      0.0045      0.0240      0.0023      0.0004
       141        -0.0240      0.1920      0.1229      0.0525      0.0093
       142         0.0060      0.1143      0.0993      0.0229      0.0041
       143        -0.1670      0.1873      0.1441      0.0837      0.0148
       144         0.0647     -0.2101      0.1231      0.0635      0.0113
       145         0.0944     -0.1130     -0.0367      0.0230      0.0041
       146         0.0494      0.0225     -0.0311      0.0039      0.0007
       147        -0.1607      0.0346      0.0309      0.0280      0.0050
       148         0.0691     -0.0176     -0.1388      0.0243      0.0044
       149        -0.1117      0.1535      0.0341      0.0372      0.0067
       150         0.1116     -0.1283     -0.0560      0.0320      0.0057
 Ground to excited state transition velocity dipole moments (Au):
       state          X           Y           Z        Dip. S.      Osc.
         1        -0.5491      0.0133     -0.0036      0.3017      2.7093
         2         0.0323      0.0027      0.0004      0.0010      0.0060
         3         0.0474      0.0845     -0.0005      0.0094      0.0474
         4         0.0129     -0.0452     -0.0091      0.0023      0.0114
         5         0.0147      0.1282      0.0002      0.0167      0.0827
         6         0.0924      0.0244      0.0052      0.0092      0.0436
         7        -0.0047     -0.0525     -0.0172      0.0031      0.0146
         8         0.0065     -0.0007      0.0050      0.0001      0.0003
         9        -0.0204      0.0369      0.0016      0.0018      0.0081
        10         0.0057      0.0028     -0.0039      0.0001      0.0003
        11        -0.0153      0.0618      0.0084      0.0041      0.0180
        12        -0.0234      0.0056      0.0032      0.0006      0.0025
        13        -0.0037     -0.0054      0.0027      0.0000      0.0002
        14         0.0052     -0.0170      0.0045      0.0003      0.0013
        15        -0.0053     -0.0112     -0.0073      0.0002      0.0008
        16         0.0232      0.0181      0.0133      0.0010      0.0040
        17         0.0504      0.0007     -0.0136      0.0027      0.0104
        18        -0.0087     -0.0021     -0.0019      0.0001      0.0003
        19        -0.0124     -0.0138     -0.0060      0.0004      0.0014
        20        -0.0052     -0.0134      0.0056      0.0002      0.0008
        21        -0.0233     -0.0039     -0.0086      0.0006      0.0022
        22        -0.0140     -0.0268     -0.0198      0.0013      0.0046
        23        -0.0240     -0.0093      0.0012      0.0007      0.0023
        24         0.0449     -0.0020      0.0077      0.0021      0.0072
        25        -0.0321      0.0154      0.0188      0.0016      0.0055
        26         0.0312      0.0571      0.0096      0.0043      0.0148
        27        -0.0504     -0.0831     -0.0060      0.0095      0.0323
        28         0.1059      0.0050     -0.0073      0.0113      0.0385
        29         0.0542     -0.0133     -0.0021      0.0031      0.0106
        30         0.0068      0.0241      0.0285      0.0014      0.0049
        31         0.0182      0.1118      0.0211      0.0133      0.0450
        32         0.0061      0.0373     -0.0072      0.0015      0.0050
        33        -0.0025     -0.0159     -0.0010      0.0003      0.0009
        34         0.0069     -0.0120      0.0086      0.0003      0.0009
        35         0.0489     -0.1048     -0.0135      0.0136      0.0449
        36         0.0062      0.0493      0.0142      0.0027      0.0088
        37        -0.0175     -0.0356      0.0118      0.0017      0.0056
        38         0.0218     -0.0092      0.0230      0.0011      0.0036
        39         0.0444     -0.0154     -0.0119      0.0024      0.0076
        40         0.2350     -0.0143     -0.0066      0.0555      0.1794
        41         0.0649      0.0534     -0.0098      0.0072      0.0231
        42        -0.0005     -0.0088      0.0066      0.0001      0.0004
        43        -0.0336     -0.0001     -0.0129      0.0013      0.0041
        44         0.1275     -0.0315     -0.0096      0.0173      0.0544
        45         0.1603     -0.1329     -0.0197      0.0437      0.1364
        46        -0.0368     -0.1123      0.0024      0.0140      0.0435
        47        -0.0017     -0.0115     -0.0021      0.0001      0.0004
        48        -0.0478     -0.0104     -0.0127      0.0026      0.0079
        49         0.0133     -0.0210     -0.0009      0.0006      0.0019
        50         0.0139      0.0919      0.0070      0.0087      0.0266
        51        -0.0530     -0.0635      0.0246      0.0075      0.0228
        52        -0.0040      0.0004     -0.0023      0.0000      0.0001
        53        -0.0201      0.0032      0.0070      0.0005      0.0014
        54        -0.0056      0.0044      0.0021      0.0001      0.0002
        55         0.0095     -0.0022      0.0029      0.0001      0.0003
        56         0.0010      0.0150     -0.0062      0.0003      0.0008
        57         0.0207     -0.0189      0.0001      0.0008      0.0023
        58         0.0120     -0.0175      0.0148      0.0007      0.0020
        59         0.0258     -0.0008      0.0160      0.0009      0.0027
        60        -0.0121      0.0069     -0.0107      0.0003      0.0009
        61        -0.0059      0.0236     -0.0150      0.0008      0.0024
        62        -0.0004      0.0312     -0.0019      0.0010      0.0029
        63         0.0649      0.0790      0.0094      0.0105      0.0308
        64        -0.0180      0.0139      0.0015      0.0005      0.0015
        65         0.2452      0.1474      0.0092      0.0819      0.2378
        66         0.0722     -0.0372      0.0050      0.0066      0.0192
        67         0.0260      0.0942     -0.0022      0.0095      0.0276
        68        -0.0815      0.0078     -0.0169      0.0070      0.0202
        69        -0.0257      0.0667      0.0210      0.0055      0.0160
        70         0.0999     -0.0068     -0.0512      0.0127      0.0365
        71         0.1148      0.0836      0.0475      0.0224      0.0645
        72        -0.0047     -0.0951     -0.0112      0.0092      0.0264
        73        -0.0645     -0.0029      0.0057      0.0042      0.0120
        74         0.0288     -0.0095      0.0241      0.0015      0.0043
        75         0.0977     -0.0177      0.0001      0.0099      0.0281
        76        -0.0701      0.0113      0.0153      0.0053      0.0150
        77        -0.1809     -0.0095     -0.0346      0.0340      0.0968
        78         0.0408     -0.0339      0.0333      0.0039      0.0111
        79        -0.0595     -0.0687     -0.0205      0.0087      0.0246
        80        -0.0216     -0.0398     -0.0075      0.0021      0.0060
        81        -0.0023     -0.0130     -0.0214      0.0006      0.0018
        82        -0.0207      0.0154     -0.0024      0.0007      0.0019
        83        -0.0808      0.0793      0.0130      0.0130      0.0364
        84        -0.0975     -0.0098     -0.0080      0.0097      0.0270
        85         0.1782     -0.1292     -0.0174      0.0487      0.1357
        86         0.0154     -0.0328     -0.0183      0.0016      0.0046
        87         0.0240     -0.0080     -0.0008      0.0006      0.0018
        88        -0.0052      0.0379     -0.0186      0.0018      0.0050
        89         0.0476      0.0419     -0.0027      0.0040      0.0110
        90        -0.0002      0.0139     -0.0030      0.0002      0.0006
        91         0.0155      0.0769     -0.0098      0.0062      0.0171
        92        -0.0008     -0.0784     -0.0061      0.0062      0.0169
        93         0.0137      0.0044     -0.0128      0.0004      0.0010
        94        -0.0100     -0.0339     -0.0161      0.0015      0.0041
        95         0.0088      0.0199      0.0147      0.0007      0.0019
        96        -0.0135      0.0030      0.0360      0.0015      0.0040
        97        -0.0173     -0.0753      0.0013      0.0060      0.0161
        98         0.1331      0.1281      0.0202      0.0345      0.0925
        99         0.1368     -0.0125     -0.0016      0.0189      0.0505
       100        -0.0450      0.0225      0.0499      0.0050      0.0134
       101        -0.0313      0.0322      0.0116      0.0022      0.0058
       102         0.1207      0.0187      0.0254      0.0156      0.0416
       103         0.0141     -0.0250      0.0147      0.0010      0.0028
       104         0.0022      0.0036     -0.0144      0.0002      0.0006
       105         0.0201      0.0133     -0.0201      0.0010      0.0026
       106         0.0256     -0.0224     -0.0085      0.0012      0.0033
       107         0.0008      0.0148      0.0321      0.0012      0.0033
       108        -0.0190     -0.0050      0.0055      0.0004      0.0011
       109         0.0129     -0.0203      0.0156      0.0008      0.0022
       110        -0.0032      0.0206      0.0127      0.0006      0.0016
       111         0.0415      0.0097     -0.0263      0.0025      0.0066
       112        -0.0021     -0.0000      0.0014      0.0000      0.0000
       113        -0.0385      0.0055     -0.0276      0.0023      0.0060
       114        -0.0023     -0.0046     -0.0152      0.0003      0.0007
       115        -0.0523      0.0128     -0.0072      0.0030      0.0077
       116        -0.0011     -0.0067     -0.0226      0.0006      0.0015
       117        -0.0101      0.0019     -0.0275      0.0009      0.0023
       118        -0.0174     -0.0158     -0.0527      0.0033      0.0087
       119        -0.0019     -0.0381     -0.0091      0.0015      0.0040
       120        -0.0186     -0.0181     -0.0164      0.0009      0.0025
       121        -0.0266     -0.0427      0.0042      0.0025      0.0066
       122         0.0169      0.0157     -0.0131      0.0007      0.0018
       123        -0.0222     -0.0072     -0.0266      0.0013      0.0032
       124         0.0491     -0.0086      0.0295      0.0034      0.0087
       125         0.0426      0.0166      0.0245      0.0027      0.0070
       126         0.0028     -0.0254     -0.0010      0.0007      0.0017
       127        -0.0006     -0.0001      0.0059      0.0000      0.0001
       128        -0.0175      0.0113     -0.0070      0.0005      0.0012
       129         0.0279     -0.0261     -0.0109      0.0016      0.0040
       130        -0.0222      0.0044      0.0439      0.0024      0.0062
       131         0.0175     -0.0059      0.0009      0.0003      0.0009
       132         0.0094      0.0326     -0.0004      0.0012      0.0029
       133         0.0290     -0.0034     -0.0072      0.0009      0.0023
       134         0.0142     -0.0180      0.0070      0.0006      0.0015
       135        -0.0042      0.0158     -0.0010      0.0003      0.0007
       136        -0.0158      0.0631     -0.0233      0.0048      0.0121
       137        -0.0235      0.0678     -0.0072      0.0052      0.0131
       138        -0.1204      0.0508      0.0056      0.0171      0.0431
       139        -0.0283      0.0153      0.0001      0.0010      0.0026
       140         0.0101     -0.0014     -0.0071      0.0002      0.0004
       141         0.0067     -0.0455     -0.0330      0.0032      0.0081
       142         0.0010     -0.0273     -0.0270      0.0015      0.0037
       143         0.0482     -0.0438     -0.0386      0.0057      0.0144
       144        -0.0194      0.0507     -0.0353      0.0042      0.0105
       145        -0.0260      0.0267      0.0124      0.0015      0.0038
       146        -0.0126     -0.0069      0.0084      0.0003      0.0007
       147         0.0415     -0.0087     -0.0087      0.0019      0.0047
       148        -0.0191      0.0045      0.0384      0.0019      0.0046
       149         0.0308     -0.0406     -0.0093      0.0027      0.0067
       150        -0.0286      0.0335      0.0162      0.0022      0.0055
 Ground to excited state transition magnetic dipole moments (Au):
       state          X           Y           Z
         1         0.0427      0.0795     -1.6011
         2        -0.0137      0.0112      0.0389
         3         0.0120      0.0048     -0.3910
         4         0.0579      0.0539     -0.2280
         5        -0.0330      0.1285     -0.4599
         6         0.0019     -0.0144     -0.6584
         7        -0.0365      0.2934     -1.5838
         8        -0.0282      0.1760     -0.3804
         9         0.0166     -0.0846      0.1066
        10         0.1159      0.0470     -0.0699
        11         0.0409     -0.1785     -0.2021
        12        -0.0043     -0.1020      1.4386
        13         0.2298      0.0926      0.0288
        14         0.1159     -0.0976      0.0180
        15         0.0643      0.0534     -0.2479
        16         0.0486      0.0108     -0.3107
        17         0.0695     -0.1070     -0.2390
        18         0.1119      0.2336     -0.0000
        19        -0.1340     -0.3283      0.2494
        20        -0.0032      0.0154      0.4411
        21         0.0892     -0.1641      0.6144
        22         0.0324     -0.0218      0.3744
        23        -0.0196     -0.1372      0.0294
        24         0.1007     -0.2588      0.0179
        25        -0.0249     -0.1805     -0.0722
        26         0.0678      0.0887     -1.1200
        27        -0.0713      0.2190     -0.1610
        28        -0.0161      0.0900     -1.0288
        29         0.0091      0.0105      0.4776
        30         0.0316      0.1921      0.5505
        31        -0.0075     -0.4558      0.9720
        32        -0.0278      0.3863     -0.0904
        33         0.1874     -0.0780      0.0371
        34        -0.0846      0.2683      0.4167
        35         0.0725      0.1722     -1.3457
        36        -0.0319     -0.3156      0.9730
        37        -0.0277     -0.4533     -0.4208
        38         0.0603      0.0359      0.1383
        39        -0.0285     -0.2719      0.2454
        40        -0.0567     -0.1016      1.6181
        41         0.0604      0.2249     -1.2956
        42         0.3150      0.3058      0.2722
        43        -0.0081      0.0557     -0.1709
        44        -0.0562      0.3206     -0.3828
        45        -0.0941      0.3017      0.5879
        46         0.0745     -0.3247      3.2385
        47        -0.0979     -0.2766      0.7511
        48        -0.0565      0.1463     -0.9632
        49         0.0759     -0.1842      0.1234
        50         0.0499      0.0311     -1.3352
        51        -0.0436     -0.0726      1.3486
        52        -0.0099      0.0487     -0.3482
        53         0.1082     -0.0833     -0.0450
        54         0.0109     -0.0134      0.0741
        55         0.0519      0.0335     -0.0468
        56         0.1865      0.4719     -0.2611
        57        -0.0379      0.0074      0.3153
        58        -0.1055      0.2257      0.3033
        59         0.1082      0.0981      0.3565
        60        -0.0187      0.1730     -0.0931
        61        -0.0332      0.3288      0.5020
        62         0.1393     -0.0313      0.4062
        63        -0.1434     -0.1800      1.0391
        64        -0.3218     -0.0119      0.5163
        65         0.0100     -0.3639      1.5185
        66        -0.0885      0.0818     -0.7838
        67         0.0413      0.0598      1.5471
        68         0.0429     -0.1907      0.3111
        69        -0.0991      0.3030      1.0360
        70         0.0413     -0.1902      0.5074
        71         0.1125     -0.6111      1.5010
        72        -0.2251      0.4489     -1.4389
        73         0.0598      0.3848     -0.0332
        74         0.0873      0.5032     -0.1616
        75         0.0311      0.2459     -0.2621
        76         0.0314      0.1046      0.8721
        77         0.1319     -0.1422     -0.4889
        78         0.1107      0.0982     -0.4807
        79        -0.0450      0.2443     -1.0351
        80        -0.0088      0.0963     -0.5731
        81        -0.0229     -0.1956      0.0222
        82         0.0572     -0.1958      0.2438
        83         0.0343     -0.2078      0.4387
        84         0.0746     -0.2489     -0.8288
        85         0.0500      0.1145      0.0885
        86        -0.0916      1.0359     -0.0629
        87        -0.0616     -0.3687     -0.1083
        88         0.2658      0.0472     -0.1255
        89        -0.1107      0.5252     -0.6669
        90        -0.2141     -0.0123     -0.2377
        91         0.0564      0.2185     -1.6680
        92         0.0096      0.1004      1.4283
        93        -0.0004     -0.0997     -0.1350
        94        -0.4656      0.2050     -0.2195
        95         0.1559      0.6470      0.0533
        96        -0.0232      0.3861     -0.1196
        97         0.0179      0.2026     -0.4013
        98         0.1092     -0.3514      2.3752
        99        -0.2144     -0.1651     -0.4664
       100         0.0879     -0.2731      0.3724
       101         0.0658      0.0041      0.3385
       102         0.2542      0.1271     -0.7055
       103         0.0952      0.1602     -0.5208
       104        -0.1484     -0.1107     -0.1201
       105        -0.0498     -0.1927      0.1222
       106        -0.0391      0.3381     -0.0960
       107        -0.2723     -0.4295      0.3392
       108         0.1488     -0.1258     -0.1742
       109        -0.0119     -0.2958      0.3260
       110         0.0537     -0.3937      0.2885
       111         0.2195      0.2366      0.6447
       112         0.0160      0.5053     -0.0391
       113        -0.0496     -0.3022      0.0999
       114        -0.0121     -0.2194     -0.1237
       115         0.0591     -0.4407      1.0108
       116        -0.1130      0.1010     -0.2324
       117        -0.0428     -0.4468      0.0492
       118        -0.0625      0.5390     -0.4437
       119         0.0445      0.1884     -0.8754
       120        -0.0583      0.2387     -0.8162
       121        -0.0168      0.3240      0.3177
       122         0.0008     -0.2675     -0.1453
       123         0.0595      0.0140      0.1277
       124         0.0004     -0.4061     -0.2236
       125         0.1853      0.4730     -0.1087
       126        -0.0325     -0.1605     -0.1535
       127        -0.0372      0.0327     -0.0406
       128        -0.0261     -0.2246     -0.3212
       129         0.0375     -0.0836     -0.2090
       130        -0.0163     -0.5680     -0.1313
       131        -0.1356     -0.0085     -0.7771
       132        -0.0176     -0.0572      0.6805
       133         0.1015     -0.0298     -0.2647
       134         0.0113     -0.2044      0.2181
       135        -0.0346     -0.2567     -0.0835
       136         0.0261     -0.2812     -0.8093
       137        -0.0771     -0.1972     -0.4217
       138         0.1260     -0.1827     -0.3631
       139        -0.0409     -0.0248      0.3606
       140        -0.2272      0.5952     -0.2083
       141         0.1534     -0.3731      0.8922
       142        -0.0956     -0.1848      0.0853
       143        -0.1212     -0.4198     -0.0174
       144         0.0138     -0.3381     -0.4950
       145        -0.1741     -0.6887      0.1774
       146        -0.1303     -1.1620      0.5046
       147         0.1513     -0.4679     -1.0782
       148         0.0197      0.1332      1.0551
       149         0.1746      0.4573     -0.2945
       150        -0.1852     -0.1911      0.4948
 Ground to excited state transition velocity quadrupole moments (Au):
       state          XX          YY          ZZ          XY          XZ          YZ
         1        -0.1889      0.0520      0.0012     -0.2153      0.0339     -0.0415
         2         2.4000      0.1971      0.0079     -0.0951      0.0077      0.0088
         3         2.3273      0.0563      0.0209     -0.5144      0.0132      0.0114
         4         0.1085      0.0317      0.0015     -0.4864     -0.1048      0.0115
         5         8.7702      0.3182      0.0468     -0.3444      0.0135      0.0149
         6        -2.9009      0.0391      0.0110     -0.0164     -0.0258     -0.0077
         7        -0.3696      0.0419      0.0116     -1.1104     -0.2487      0.0008
         8         0.7510      0.0457      0.0010     -0.3629      0.0688     -0.0113
         9         0.4038      0.0277      0.0063      0.3126      0.0390     -0.0002
        10        -0.3160     -0.0057     -0.0066     -0.0732      0.0821     -0.0503
        11        -0.4482      0.1411      0.0084     -0.7511      0.0785      0.0098
        12         0.9989      0.0524      0.0422      0.8584      0.0535      0.0180
        13        -0.2488      0.0398      0.0704      0.0849     -0.0695      0.1510
        14         0.1877      0.0753     -0.0417      0.0474      0.0848      0.0668
        15        -1.6150     -0.2796     -0.0205      0.1623     -0.0321      0.0050
        16        -1.7189     -0.0695     -0.0313     -0.5595     -0.0195      0.0184
        17        -0.3498      0.0776      0.0086     -0.5524      0.0821     -0.0012
        18        -0.1052      0.0412      0.0169      0.1367     -0.1191      0.0602
        19        -0.8497      0.1861      0.0090      0.2165      0.3042     -0.0789
        20         0.0708     -0.1206      0.0077      0.1519     -0.0184     -0.0132
        21        -0.8112      0.0285      0.0110      0.4935      0.0982      0.0643
        22         0.5168     -0.1134      0.0113      0.5420      0.0225      0.0718
        23        -0.1573      0.0129      0.0072      0.0587      0.0866      0.0021
        24        -0.5007     -0.0234      0.0564     -0.0400      0.1849      0.1005
        25        -0.5831     -0.0655     -0.0245      0.0262     -0.0241     -0.0440
        26        -0.2216     -0.0237      0.0030     -1.1887     -0.1047     -0.0009
        27         0.1789      0.0594      0.0235     -0.3067     -0.2794     -0.0100
        28        -3.5692      0.1581      0.0114     -0.4874     -0.1784     -0.0186
        29         2.3593      0.0518     -0.0071      0.4464     -0.0658      0.0031
        30        -0.1649      0.0036     -0.0003      0.5659     -0.0531      0.0088
        31        -1.3880      0.0212      0.0310      1.0833      0.3637      0.0191
        32        -0.4301      0.0484     -0.0369     -0.1307     -0.2975     -0.0635
        33         0.1370      0.0176      0.0155      0.0845      0.2531     -0.0063
        34         0.5547     -0.0046     -0.0389      0.5089     -0.2505     -0.0279
        35        -4.7687     -0.1059      0.0400     -0.7309     -0.1171     -0.0005
        36         1.0546      0.0544     -0.0071      1.0701      0.1996     -0.0648
        37        -0.5684      0.0768     -0.0166     -0.4680      0.0689     -0.0357
        38        -0.7830     -0.0153      0.0202      0.2584     -0.0027      0.0990
        39        -1.0237     -0.1407      0.0031      0.5111      0.1966      0.0425
        40        -0.8301     -0.5260      0.0089      2.0774     -0.0212      0.0102
        41         2.9835     -0.1028     -0.0263     -1.0384     -0.1452     -0.0201
        42        -0.4534      0.0103      0.0065      0.2557     -0.0449      0.0487
        43        -0.7713      0.0912     -0.0034     -0.2950     -0.0822      0.0155
        44         1.7396     -0.1908     -0.0060      0.0698     -0.3068     -0.0636
        45         3.5380     -0.4528     -0.0312      1.0823     -0.2291     -0.0636
        46        -2.1339     -0.4837      0.0930      2.4659      0.2848      0.0743
        47        -1.7451      0.2199      0.0445      0.6392      0.1808     -0.0218
        48         0.7618     -0.2933     -0.0121     -0.9423     -0.1216     -0.0155
        49        -1.2573      0.0589      0.0317      0.2656      0.1179      0.0867
        50         3.4770      0.0698     -0.0580     -1.3745     -0.0226      0.0125
        51        -2.6093     -0.0661     -0.0226      1.1454     -0.0050     -0.0014
        52        -0.0861     -0.0530     -0.0008     -0.3416     -0.0428     -0.0081
        53        -0.7475      0.0706     -0.0160     -0.1053      0.0485      0.0907
        54         0.1090     -0.0273     -0.0020      0.0675      0.0073      0.0092
        55         0.1577     -0.0423      0.0102      0.0197     -0.0845      0.0146
        56         0.0503      0.0100      0.0467     -0.2000     -0.4224      0.1194
        57         0.1975     -0.0358     -0.0157      0.3045     -0.1391     -0.0839
        58         0.6485      0.0493     -0.0261      0.4533     -0.1147     -0.0430
        59        -0.0117     -0.0294     -0.0434      0.4044     -0.1067      0.0002
        60        -1.1609     -0.0561     -0.0536      0.0001     -0.0813     -0.0618
        61         1.3507     -0.0575     -0.0746      0.2532     -0.2829     -0.0861
        62         1.7350      0.1576      0.0353      0.3108      0.0580      0.0793
        63         1.4503      0.0893     -0.0158      0.9839      0.1896     -0.0060
        64         2.4439      0.0502     -0.0415      0.2250      0.1435     -0.0975
        65        -0.3950      0.3189     -0.0276      2.2078      0.2499     -0.0048
        66        -4.1056      0.1211      0.0087     -0.2827     -0.1166     -0.0225
        67         4.0886     -0.1720     -0.0422      1.0200      0.1039     -0.0219
        68         3.8114     -0.0817     -0.0083     -0.0014      0.1466      0.0127
        69         4.4120     -0.1976     -0.1038      0.6330     -0.3107     -0.1458
        70        -1.1016      0.0424     -0.0260      0.9363      0.0969      0.0623
        71         1.6175      0.1705      0.0575      1.5904      0.5121      0.0606
        72        -6.2449      0.2476     -0.0622     -1.0835     -0.5211     -0.0586
        73         1.7074      0.1153      0.0559     -0.4470     -0.2911      0.1006
        74        -0.3037      0.0703     -0.0056      0.0380     -0.4673      0.0242
        75        -3.0562      0.2107     -0.0037      0.4623     -0.2235     -0.0514
        76         1.0475     -0.2229     -0.0316      0.6509      0.0268      0.0475
        77         3.4701     -0.1485      0.0128     -1.4219      0.0995      0.0773
        78        -1.2113     -0.0340     -0.0110     -0.1707     -0.1411      0.0666
        79        -0.8192     -0.1896     -0.0187     -0.9678     -0.2382     -0.0058
        80        -0.4923     -0.1259     -0.0059     -0.4676     -0.1043      0.0116
        81        -0.0712     -0.0767      0.0288      0.0184      0.1718     -0.0051
        82         1.3165     -0.0671      0.0127      0.1099      0.2372     -0.0054
        83        -1.5509      0.2012      0.0168      0.1463      0.1118      0.0645
        84        -3.8992      0.4247      0.0160     -1.0996      0.2062      0.0805
        85         2.1164     -0.5456      0.0068      0.8093     -0.1191     -0.0471
        86        -0.3675     -0.0268     -0.0560      0.0218     -0.9480     -0.0982
        87         0.5064     -0.0789     -0.0932     -0.1516      0.2895      0.0100
        88         0.6051     -0.1034     -0.0287     -0.3373      0.0132      0.1458
        89         0.3806     -0.0239     -0.0489     -0.6705     -0.4844     -0.2161
        90         0.3098      0.0968     -0.0382     -0.2321     -0.0911     -0.0109
        91         3.0683      0.2335     -0.0448     -1.8043     -0.1999     -0.0288
        92        -1.6167     -0.1285      0.0085      1.5768     -0.1189     -0.0047
        93         0.6150     -0.0310      0.0367     -0.0516      0.1428     -0.0024
        94        -0.2117      0.1029     -0.2001     -0.3239     -0.1212     -0.4361
        95        -0.0035     -0.0996      0.0179      0.0727     -0.5213      0.0601
        96         0.5918     -0.0251     -0.0418     -0.2183     -0.3833     -0.0004
        97        -0.0269     -0.1171     -0.0286     -0.3838     -0.1358      0.0074
        98         2.2040      0.0612     -0.0123      2.6117      0.3806      0.0852
        99        -4.1168      0.3464      0.0455      0.1407      0.1523     -0.1957
       100         1.4617     -0.0933      0.0621      0.2723      0.3354      0.0554
       101         1.5599      0.0229      0.0468      0.2007      0.0769     -0.0097
       102        -3.5773      0.0262     -0.0018     -0.2238     -0.2289      0.2225
       103        -0.7473      0.0765      0.0059     -0.4588     -0.1242     -0.0284
       104        -0.2277     -0.0326      0.0393     -0.1229      0.1686      0.0000
       105         0.8500      0.0696      0.1165     -0.0070      0.2366     -0.1346
       106        -1.2113      0.0405     -0.0412      0.1812     -0.3501     -0.0538
       107        -0.2039      0.1129     -0.1092      0.2783      0.4129     -0.1522
       108         0.2369     -0.0755     -0.0556     -0.2242      0.0679      0.0805
       109         0.4286      0.0097     -0.0272      0.3109      0.3712      0.0349
       110         0.0505     -0.0042      0.0604      0.3114      0.3382      0.0469
       111         1.5817      0.0051      0.0998      0.6521     -0.2422      0.1051
       112        -0.0876      0.0704     -0.0635     -0.0493     -0.5063     -0.0293
       113         0.2758     -0.1957      0.0568     -0.1044      0.3824      0.0062
       114         0.2432     -0.2727     -0.0111     -0.2352      0.2141      0.0813
       115         1.3975     -0.0930      0.0806      0.3901      0.4364      0.0276
       116         0.2009     -0.0738     -0.0163     -0.2628      0.0473     -0.0911
       117         0.0128     -0.0200      0.0074      0.0506      0.3838     -0.1169
       118        -0.7540     -0.0654     -0.0628     -0.3123     -0.6043     -0.0174
       119         0.2350     -0.2539     -0.0601     -1.0150     -0.1776     -0.0004
       120         0.2640     -0.1765     -0.0060     -0.7225     -0.3079     -0.0499
       121         0.4085     -0.1588     -0.0483      0.3430     -0.3086      0.0076
       122        -0.2596      0.1934     -0.0274      0.0677      0.2779     -0.0163
       123        -0.5175      0.0336     -0.0975      0.0491      0.0072      0.0575
       124         1.3659     -0.0349      0.0711      0.0210      0.5088      0.0343
       125        -1.1547     -0.0208     -0.0297     -0.0319     -0.4813      0.1607
       126         0.9081     -0.2656     -0.0586     -0.5005      0.1048     -0.0865
       127        -0.0274      0.0190      0.0109     -0.0747     -0.1845      0.0837
       128        -0.3799     -0.0256      0.0098     -0.1955      0.2900     -0.0492
       129        -0.0002      0.0581     -0.0292     -0.1655      0.0892     -0.0161
       130        -0.7798      0.0199      0.0135     -0.1091      0.6567      0.0640
       131        -0.7503      0.2399      0.0169     -0.5609     -0.0487     -0.0189
       132         0.5881     -0.1310      0.0075      0.7935      0.0853     -0.0064
       133         0.7128      0.0725     -0.0375     -0.2027      0.0398     -0.0114
       134         0.4678      0.0174      0.0748      0.3422      0.0509      0.0149
       135        -0.2869      0.0024      0.0581     -0.0633     -0.1055      0.0207
       136         0.9892     -0.0291     -0.0309     -0.8495      0.4029     -0.0742
       137         1.7484     -0.1409     -0.0784     -0.6236      0.0519      0.0032
       138        -1.9888     -0.1362      0.1239     -0.6873      0.1675      0.0892
       139        -0.8523      0.1205     -0.0565      0.1856      0.0414     -0.0934
       140         0.3373      0.0056      0.0119     -0.1164     -0.5264      0.0156
       141        -0.5136     -0.0661      0.0297      0.9920      0.4627     -0.0437
       142        -0.8050      0.1023      0.0046      0.2186      0.3251     -0.0451
       143        -0.5815      0.0045      0.0639      0.4314      0.4772     -0.0771
       144         0.3321      0.0041      0.0118     -0.6345      0.4852     -0.2404
       145         0.0838      0.0637     -0.0933     -0.0045      0.6003     -0.0445
       146        -0.6100      0.0633      0.0929      0.4835      1.1025      0.0082
       147         1.3891      0.0053     -0.0278     -1.0135      0.4913      0.0123
       148        -1.7368      0.1518     -0.0429      1.0379     -0.0613     -0.0642
       149         0.7442     -0.1599      0.0895     -0.3373     -0.3161      0.0417
       150        -1.2553      0.0427     -0.1131      0.3243      0.2205     -0.0900
 <0|del|b> * <b|rxdel|0> + <0|del|b> * <b|delr+rdel|0>
 Rotatory Strengths (R) in cgs (10**-40 erg-esu-cm/Gauss)
       state          XX          YY          ZZ    R(velocity)    E-M Angle
         1        33.7102     20.3839   -213.1091    -53.0050       91.09
         2        -0.0388     -0.3117     -2.0407     -0.7971      106.58
         3        -0.6148      2.7942      4.1547      2.1113       88.21
         4        -1.7548     -3.8539      7.6774      0.6896       88.06
         5        38.3522     -0.7674     46.0927     27.8925       75.09
         6        -8.1349     -9.7598     -0.2262     -6.0403       93.26
         7        45.1515     20.9397     -5.4675     20.2079       82.25
         8        -9.2703     -0.8411     -0.6901     -3.6005      129.72
         9        -9.3258     -1.6039     -4.8616     -5.2638      124.64
        10         1.1022      0.8690      3.1505      1.7073       90.00
        11       -55.2229      8.8753    -15.3846    -20.5774      139.69
        12        14.5755      3.4586      0.5568      6.1970       83.16
        13        -1.1805     -3.3099     -0.8799     -1.7901      136.20
        14         7.0471      1.6874      0.9766      3.2370       33.25
        15        -0.6733      5.4281     -1.1397      1.2050       76.50
        16       -22.5705      9.9488      1.1087     -3.8376      106.10
        17        21.4751     -1.6644      7.1455      8.9854       61.81
        18        -1.9360     -2.3805     -1.3314     -1.8826      128.17
        19        11.3973      4.6678      1.9435      6.0029       56.09
        20         5.4093      3.2188     -0.0218      2.8688       70.54
        21       -16.1137     -8.7226     -0.6128     -8.4830      114.65
        22       -31.8203      3.4879      1.0016     -9.1103      122.30
        23         4.0737      0.7115      1.8380      2.2077       60.71
        24         1.2988     17.4306      0.2811      6.3368       65.96
        25        -5.9486      0.6557     -6.8383     -4.0437      115.06
        26       -20.0482      4.9841      2.2304     -4.2779       92.74
        27       -69.8510      5.8419     14.6575    -16.4505      119.90
        28        22.3527      0.4750     -0.3210      7.5022       86.75
        29        -5.2945      1.0755      1.9151     -0.7680       91.37
        30        67.9487     -0.2921      6.3178     24.6581       22.05
        31       -86.8319     -3.8428    -19.3722    -36.6823      104.33
        32        48.4909     -1.5067      6.3125     17.7656       13.26
        33         9.1430     -0.7393     -5.8204      0.8611       77.38
        34         3.0656     -2.7769     -1.0705     -0.2606       91.55
        35        -3.9952     20.7526     -3.8564      4.3003       88.67
        36         6.3173     -3.4603     -9.6308     -2.2580       92.10
        37        14.0389      2.8945     23.5448     13.4928       62.97
        38        15.1637      1.2249     -1.9841      4.8015       35.51
        39        -3.0585      6.5193     -3.4300      0.0103       90.00
        40       -39.9822    -13.5068    -23.9419    -25.8103       93.39
        41        72.9971      8.7974     16.2158     32.6701       75.10
        42         0.7390     -0.1076     -4.1290     -1.1659      100.36
        43        10.1144     -3.1246      1.3461      2.7786       67.56
        44       -27.8754    -18.1801      0.8523    -15.0677      101.84
        45      -170.9252    -25.7159    -24.0375    -73.5595      118.55
        46       135.6740     -5.9598      7.3879     45.7007       83.80
        47         3.9385     -0.0504      2.0299      1.9727       79.15
        48        35.1375      6.0854      2.8023     14.6751       74.23
        49         9.7560      3.7549      2.0373      5.1827       35.23
        50       -22.7568      1.8512      2.1020     -6.2679       92.66
        51       106.4769     11.9725     11.6043     43.3513       69.88
        52         2.6212      0.1403      0.0151      0.9255       58.04
        53        -2.3705     -5.7627     -0.7454     -2.9595      152.99
        54         0.3314     -0.1575     -0.0590      0.0383       90.00
        55        -0.5356      0.7155      0.7493      0.3098       68.54
        56        25.9754      1.0773      1.2868      9.4465       16.87
        57        -4.2588     -3.9734      5.4254     -0.9356       95.74
        58         8.1765     -6.2783     -4.2388     -0.7802       94.21
        59        18.8627      3.1807      4.3816      8.8083       43.94
        60         4.3152      3.0803      0.1793      2.5250       45.71
        61         4.8226     -4.7545      1.2066      0.4249       88.64
        62        -6.4923     -0.4156      1.2559     -1.8840       97.78
        63       -15.9048    -14.2340    -12.6474    -14.2620       97.26
        64        -1.6114     12.3232      9.0510      6.5876       62.50
        65       -86.6631     -7.7704    -20.2866    -38.2400       94.78
        66       -19.6163    -16.2199     -5.3305    -13.7222      101.96
[...]
                 (A) (A) (A) (A) (A) (A) (A) (A) (A) (A) (A) (A)
                 (A) (A) (A) (A) (A) (A) (A) (A) (A) (A) (A) (A)
                 (A) (A) (A) (A) (A) (A) (A) (A) (A) (A) (A) (A)
                 (A) (A) (A) (A) (A) (A) (A) (A) (A) (A) (A) (A)
                 (A) (A) (A) (A) (A) (A) (A) (A) (A) (A) (A) (A)
                 (A) (A) (A) (A) (A) (A) (A) (A) (A) (A) (A) (A)
                 (A) (A) (A) (A) (A) (A) (A) (A) (A) (A) (A) (A)
                 (A) (A) (A) (A) (A) (A) (A) (A) (A) (A) (A) (A)
                 (A) (A) (A) (A) (A) (A) (A) (A) (A) (A) (A) (A)
                 (A) (A) (A) (A) (A) (A) (A) (A) (A) (A) (A) (A)
                 (A) (A) (A) (A) (A) (A) (A) (A) (A) (A) (A) (A)
                 (A) (A) (A) (A) (A) (A) (A) (A) (A) (A) (A) (A)
                 (A) (A) (A) (A) (A) (A) (A) (A) (A) (A) (A) (A)
                 (A) (A) (A) (A) (A) (A) (A) (A) (A) (A) (A) (A)
                 (A) (A) (A) (A) (A) (A) (A) (A) (A) (A) (A) (A)
                 (A) (A) (A) (A) (A) (A) (A) (A) (A) (A) (A) (A)
                 (A) (A) (A) (A) (A) (A) (A) (A) (A) (A) (A) (A)
                 (A) (A) (A) (A) (A) (A) (A) (A) (A) (A) (A) (A)
                 (A) (A) (A) (A) (A) (A) (A) (A) (A) (A) (A) (A)
                 (A) (A) (A) (A) (A) (A) (A) (A) (A) (A) (A) (A)
                 (A) (A) (A) (A) (A) (A) (A) (A) (A) (A) (A) (A)
                 (A) (A) (A) (A) (A) (A) (A) (A) (A) (A) (A) (A)
                 (A) (A) (A) (A) (A) (A) (A) (A) (A) (A) (A) (A)
                 (A) (A) (A) (A) (A) (A) (A) (A) (A) (A) (A) (A)
                 (A) (A) (A) (A) (A) (A) (A) (A) (A) (A) (A) (A)
                 (A) (A) (A) (A) (A) (A) (A) (A) (A) (A) (A) (A)
                 (A) (A) (A) (A) (A) (A) (A) (A) (A) (A) (A) (A)
                 (A) (A) (A) (A) (A) (A) (A) (A) (A) (A) (A) (A)
                 (A) (A) (A) (A) (A) (A) (A) (A) (A) (A) (A) (A)
                 (A) (A) (A) (A) (A) (A) (A) (A) (A) (A) (A) (A)
                 (A) (A) (A) (A) (A) (A) (A) (A) (A) (A) (A) (A)
                 (A) (A) (A) (A) (A) (A) (A) (A) (A) (A) (A) (A)
                 (A) (A) (A) (A) (A) (A) (A) (A) (A) (A) (A) (A)
                 (A) (A) (A) (A) (A) (A) (A) (A) (A) (A) (A) (A)
                 (A) (A) (A) (A) (A) (A) (A) (A) (A) (A) (A) (A)
                 (A) (A) (A) (A) (A) (A) (A) (A) (A) (A) (A) (A)
                 (A) (A) (A) (A) (A) (A) (A) (A) (A) (A) (A) (A)
                 (A)
 The electronic state is 1-A.
 Alpha  occ. eigenvalues --  -88.90224 -88.90055 -14.40123 -14.39811 -10.28522
 Alpha  occ. eigenvalues --  -10.28142 -10.24433 -10.24320 -10.23082 -10.22998
 Alpha  occ. eigenvalues --  -10.22234 -10.22092 -10.20356 -10.20345 -10.19711
 Alpha  occ. eigenvalues --  -10.19681 -10.19639 -10.19451 -10.19357 -10.19114
 Alpha  occ. eigenvalues --  -10.18945 -10.18857 -10.18754 -10.18748 -10.18651
 Alpha  occ. eigenvalues --  -10.17921 -10.17890 -10.16713 -10.16596  -7.98858
 Alpha  occ. eigenvalues --   -7.98686  -5.95188  -5.95024  -5.94816  -5.94652
 Alpha  occ. eigenvalues --   -5.94351  -5.94166  -1.02257  -1.02145  -0.88325
 Alpha  occ. eigenvalues --   -0.88224  -0.85546  -0.85327  -0.83726  -0.81960
 Alpha  occ. eigenvalues --   -0.79696  -0.78047  -0.77731  -0.76971  -0.75528
 Alpha  occ. eigenvalues --   -0.75154  -0.73925  -0.70895  -0.67225  -0.66316
 Alpha  occ. eigenvalues --   -0.66193  -0.64182  -0.63373  -0.61978  -0.61213
 Alpha  occ. eigenvalues --   -0.59397  -0.57716  -0.57042  -0.56575  -0.53270
 Alpha  occ. eigenvalues --   -0.53172  -0.53033  -0.51266  -0.50935  -0.49246
 Alpha  occ. eigenvalues --   -0.48027  -0.47769  -0.47668  -0.46967  -0.46865
 Alpha  occ. eigenvalues --   -0.46482  -0.46169  -0.45248  -0.44354  -0.44050
 Alpha  occ. eigenvalues --   -0.43767  -0.42705  -0.41186  -0.41052  -0.40564
 Alpha  occ. eigenvalues --   -0.40452  -0.39813  -0.39557  -0.38702  -0.38440
 Alpha  occ. eigenvalues --   -0.37952  -0.37864  -0.37649  -0.37472  -0.36975
 Alpha  occ. eigenvalues --   -0.36611  -0.36195  -0.36010  -0.35886  -0.35734
 Alpha  occ. eigenvalues --   -0.35435  -0.32669  -0.32336  -0.32171  -0.29426
 Alpha  occ. eigenvalues --   -0.26993  -0.25819  -0.25715  -0.23725  -0.18645
 Alpha virt. eigenvalues --   -0.10898  -0.04825  -0.03164  -0.03140  -0.02007
 Alpha virt. eigenvalues --   -0.01907  -0.01434  -0.01270   0.00121   0.00326
 Alpha virt. eigenvalues --    0.00752   0.01467   0.01666   0.01803   0.02032
 Alpha virt. eigenvalues --    0.02560   0.02759   0.02783   0.03026   0.03286
 Alpha virt. eigenvalues --    0.03680   0.03697   0.04004   0.04448   0.04535
 Alpha virt. eigenvalues --    0.04818   0.05005   0.05535   0.05686   0.05797
 Alpha virt. eigenvalues --    0.06319   0.06510   0.06615   0.06809   0.07514
 Alpha virt. eigenvalues --    0.07623   0.07836   0.08018   0.08106   0.08211
 Alpha virt. eigenvalues --    0.08391   0.08660   0.08944   0.09338   0.09617
 Alpha virt. eigenvalues --    0.09756   0.09950   0.10147   0.10430   0.10846
 Alpha virt. eigenvalues --    0.10968   0.11189   0.11636   0.11697   0.12104
 Alpha virt. eigenvalues --    0.12213   0.12386   0.12673   0.12973   0.13278
 Alpha virt. eigenvalues --    0.13436   0.13593   0.13706   0.13918   0.14335
 Alpha virt. eigenvalues --    0.14454   0.14558   0.14818   0.15034   0.15110
 Alpha virt. eigenvalues --    0.15363   0.15742   0.15914   0.16167   0.16443
 Alpha virt. eigenvalues --    0.16523   0.16675   0.16947   0.17147   0.17291
 Alpha virt. eigenvalues --    0.17449   0.17638   0.17756   0.18080   0.18314
 Alpha virt. eigenvalues --    0.18371   0.18549   0.18640   0.18710   0.18974
 Alpha virt. eigenvalues --    0.19171   0.19676   0.19818   0.20066   0.20315
 Alpha virt. eigenvalues --    0.20382   0.20778   0.20986   0.21108   0.21190
 Alpha virt. eigenvalues --    0.21505   0.21759   0.21884   0.21993   0.22386
 Alpha virt. eigenvalues --    0.22455   0.22610   0.22676   0.22828   0.23161
 Alpha virt. eigenvalues --    0.23253   0.23360   0.23643   0.23824   0.23922
 Alpha virt. eigenvalues --    0.24504   0.24621   0.24680   0.25172   0.25244
 Alpha virt. eigenvalues --    0.25353   0.25572   0.26039   0.26151   0.26397
 Alpha virt. eigenvalues --    0.26611   0.26767   0.27286   0.27530   0.27574
 Alpha virt. eigenvalues --    0.27984   0.28169   0.28255   0.28496   0.28867
 Alpha virt. eigenvalues --    0.29198   0.29256   0.29467   0.29626   0.29816
 Alpha virt. eigenvalues --    0.29853   0.30382   0.30519   0.31111   0.31579
 Alpha virt. eigenvalues --    0.31914   0.32230   0.32424   0.32647   0.32943
 Alpha virt. eigenvalues --    0.33073   0.33128   0.33514   0.33965   0.34281
 Alpha virt. eigenvalues --    0.34954   0.35036   0.35433   0.35853   0.36475
 Alpha virt. eigenvalues --    0.36688   0.37295   0.37594   0.38415   0.38863
 Alpha virt. eigenvalues --    0.39185   0.40076   0.40418   0.40886   0.41653
 Alpha virt. eigenvalues --    0.42178   0.42446   0.43297   0.44088   0.44500
 Alpha virt. eigenvalues --    0.45296   0.45756   0.46678   0.46799   0.46877
 Alpha virt. eigenvalues --    0.48084   0.48431   0.49093   0.49717   0.50600
 Alpha virt. eigenvalues --    0.51019   0.51655   0.51699   0.52076   0.52523
 Alpha virt. eigenvalues --    0.53006   0.53143   0.53190   0.53558   0.53820
 Alpha virt. eigenvalues --    0.53945   0.54194   0.54635   0.55052   0.55282
 Alpha virt. eigenvalues --    0.55443   0.56007   0.56213   0.57005   0.57259
 Alpha virt. eigenvalues --    0.57335   0.57577   0.58209   0.58280   0.59185
 Alpha virt. eigenvalues --    0.59288   0.59628   0.59971   0.60420   0.60690
 Alpha virt. eigenvalues --    0.61278   0.61389   0.61565   0.62033   0.62596
 Alpha virt. eigenvalues --    0.62874   0.63077   0.63596   0.64698   0.65126
 Alpha virt. eigenvalues --    0.65906   0.66164   0.66525   0.66594   0.67144
 Alpha virt. eigenvalues --    0.67347   0.67692   0.68078   0.68263   0.68892
 Alpha virt. eigenvalues --    0.69138   0.69326   0.69746   0.69836   0.70583
 Alpha virt. eigenvalues --    0.70827   0.71053   0.71119   0.71629   0.71721
 Alpha virt. eigenvalues --    0.71910   0.72050   0.72401   0.73043   0.73642
 Alpha virt. eigenvalues --    0.73837   0.74493   0.75101   0.75550   0.76159
 Alpha virt. eigenvalues --    0.76219   0.76507   0.76875   0.76988   0.77034
 Alpha virt. eigenvalues --    0.77608   0.78470   0.78873   0.79184   0.79593
 Alpha virt. eigenvalues --    0.80248   0.80796   0.81332   0.81978   0.82399
 Alpha virt. eigenvalues --    0.82964   0.83468   0.83581   0.83951   0.84010
 Alpha virt. eigenvalues --    0.84206   0.84499   0.85180   0.85874   0.86728
 Alpha virt. eigenvalues --    0.87273   0.87981   0.88141   0.88713   0.89839
 Alpha virt. eigenvalues --    0.90234   0.90871   0.91038   0.91342   0.91608
 Alpha virt. eigenvalues --    0.92088   0.92937   0.93317   0.93380   0.94459
 Alpha virt. eigenvalues --    0.95694   0.95921   0.96575   0.96714   0.97268
 Alpha virt. eigenvalues --    0.98067   0.98506   0.99376   0.99686   1.00139
 Alpha virt. eigenvalues --    1.00694   1.02136   1.02762   1.03513   1.03890
 Alpha virt. eigenvalues --    1.04145   1.05475   1.05671   1.06153   1.06579
 Alpha virt. eigenvalues --    1.06913   1.07798   1.08114   1.09110   1.09229
 Alpha virt. eigenvalues --    1.10347   1.10361   1.11015   1.12040   1.12854
 Alpha virt. eigenvalues --    1.13780   1.14134   1.17564   1.17868   1.18728
 Alpha virt. eigenvalues --    1.19315   1.20123   1.20258   1.20762   1.20826
 Alpha virt. eigenvalues --    1.21721   1.24074   1.24423   1.26684   1.27711
 Alpha virt. eigenvalues --    1.28154   1.28535   1.28945   1.29550   1.31239
 Alpha virt. eigenvalues --    1.32987   1.33973   1.34966   1.39632   1.41233
 Alpha virt. eigenvalues --    1.42323   1.45655   1.46222   1.47286   1.47526
 Alpha virt. eigenvalues --    1.49353   1.49638   1.50548   1.51184   1.51470
 Alpha virt. eigenvalues --    1.51688   1.52788   1.53307   1.53485   1.54350
 Alpha virt. eigenvalues --    1.55507   1.55863   1.56839   1.57872   1.58900
 Alpha virt. eigenvalues --    1.59974   1.60886   1.61394   1.61770   1.62640
 Alpha virt. eigenvalues --    1.63502   1.63697   1.63937   1.64991   1.65560
 Alpha virt. eigenvalues --    1.67022   1.67696   1.67874   1.69594   1.70153
 Alpha virt. eigenvalues --    1.70688   1.71675   1.72012   1.74012   1.75170
 Alpha virt. eigenvalues --    1.75848   1.77100   1.77428   1.77627   1.79109
 Alpha virt. eigenvalues --    1.79178   1.79735   1.80421   1.81511   1.81948
 Alpha virt. eigenvalues --    1.82465   1.83227   1.83980   1.84687   1.87298
 Alpha virt. eigenvalues --    1.87677   1.88894   1.89778   1.89940   1.90119
 Alpha virt. eigenvalues --    1.90364   1.90929   1.93907   1.94529   1.95007
 Alpha virt. eigenvalues --    1.95267   1.96110   1.96721   1.97885   1.98326
 Alpha virt. eigenvalues --    1.99110   1.99710   2.00156   2.02385   2.03788
 Alpha virt. eigenvalues --    2.03963   2.05254   2.05559   2.07082   2.07432
 Alpha virt. eigenvalues --    2.08627   2.09932   2.10422   2.12811   2.13387
 Alpha virt. eigenvalues --    2.14032   2.15576   2.16880   2.20226   2.23377
 Alpha virt. eigenvalues --    2.24104   2.25897   2.26813   2.27627   2.28289
 Alpha virt. eigenvalues --    2.28697   2.29037   2.29399   2.30336   2.31256
 Alpha virt. eigenvalues --    2.32282   2.32791   2.34694   2.36714   2.37807
 Alpha virt. eigenvalues --    2.38645   2.39291   2.39845   2.40688   2.42202
 Alpha virt. eigenvalues --    2.43727   2.45091   2.47243   2.48373   2.51615
 Alpha virt. eigenvalues --    2.51732   2.52631   2.53511   2.54362   2.54798
 Alpha virt. eigenvalues --    2.57076   2.57851   2.58695   2.59199   2.60176
 Alpha virt. eigenvalues --    2.61037   2.62767   2.64163   2.64528   2.64852
 Alpha virt. eigenvalues --    2.65640   2.66870   2.67564   2.69881   2.71757
 Alpha virt. eigenvalues --    2.73180   2.74479   2.75455   2.76859   2.76876
 Alpha virt. eigenvalues --    2.77143   2.79731   2.80241   2.80711   2.81253
 Alpha virt. eigenvalues --    2.81730   2.84876   2.85409   2.87953   2.89167
 Alpha virt. eigenvalues --    2.89535   2.90896   2.91684   2.92167   2.93535
 Alpha virt. eigenvalues --    2.94488   2.95431   2.98121   2.98703   2.99407
 Alpha virt. eigenvalues --    3.01942   3.02278   3.04674   3.05431   3.05473
 Alpha virt. eigenvalues --    3.07624   3.12609   3.13298   3.15999   3.17542
 Alpha virt. eigenvalues --    3.18647   3.19776   3.22071   3.22258   3.25413
 Alpha virt. eigenvalues --    3.26411   3.27022   3.27987   3.28440   3.28825
 Alpha virt. eigenvalues --    3.29086   3.29525   3.30653   3.30803   3.31149
 Alpha virt. eigenvalues --    3.31620   3.32327   3.32927   3.34895   3.35073
 Alpha virt. eigenvalues --    3.35815   3.36215   3.42095   3.42287   3.46031
 Alpha virt. eigenvalues --    3.47166   3.52458   3.53347   3.54136   3.59711
 Alpha virt. eigenvalues --    3.60299   3.61587   3.65271   3.65981   3.71640
 Alpha virt. eigenvalues --    3.75754   3.76460   3.81490   3.83636   3.85359
 Alpha virt. eigenvalues --    3.93154   3.95448   3.96500   3.99683   4.01028
 Alpha virt. eigenvalues --    4.02290   4.05215   4.13578   4.30303   4.53815
 Alpha virt. eigenvalues --    4.77595   4.77687   4.81881   4.82480   5.04126
 Alpha virt. eigenvalues --    5.06086   7.98781   7.99380  17.27797  17.27856
 Alpha virt. eigenvalues --   17.51376  17.52423  17.55311  17.55622  23.33038
 Alpha virt. eigenvalues --   23.35770  23.41330  23.55539  23.56376  23.57501
 Alpha virt. eigenvalues --   23.69077  23.70265  23.74210  23.83915  23.84355
 Alpha virt. eigenvalues --   23.85239  23.87162  23.87901  23.94878  23.99999
 Alpha virt. eigenvalues --   24.00301  24.02062  24.02793  24.02922  24.06214
 Alpha virt. eigenvalues --   24.08671  24.09549  24.12088  24.12189  35.55891
 Alpha virt. eigenvalues --   35.56591 189.16102 189.16835
          Condensed to atoms (all electrons):
 Mulliken charges:
               1
     1  C   -0.497921
     2  C   -0.089365
     3  C   -0.762311
     4  C    0.316115
     5  C    0.349405
     6  S   -0.514384
     7  C    1.056437
     8  C   -0.277087
     9  N    0.704572
    10  C   -0.864586
    11  C    0.036189
    12  C   -0.615469
    13  C   -0.186911
    14  C   -0.539060
    15  C   -0.722098
    16  C   -0.789883
    17  C    0.152665
    18  C   -0.585657
    19  C    0.460324
    20  S   -0.370190
    21  C    1.286208
    22  C   -0.640824
    23  N    0.765659
    24  C   -1.177005
    25  C   -0.088126
    26  C   -0.609739
    27  C   -0.172010
    28  C   -0.658522
    29  C   -0.747374
    30  H    0.277945
    31  H    0.259175
    32  H    0.254250
    33  H    0.263028
    34  H    0.280013
    35  H    0.266886
    36  H    0.269556
    37  H    0.276520
    38  H    0.273259
    39  H    0.269902
    40  H    0.265347
    41  H    0.271612
    42  H    0.271457
    43  H    0.254476
    44  H    0.284805
    45  H    0.266863
    46  H    0.284728
    47  H    0.268285
    48  H    0.269391
    49  H    0.282629
    50  H    0.268537
    51  H    0.279980
    52  H    0.272059
    53  H    0.274730
    54  H    0.275515
 Sum of Mulliken charges =   1.00000
 Mulliken charges with hydrogens summed into heavy atoms:
               1
     1  C   -0.219976
     2  C    0.169811
     3  C   -0.508061
     4  C    0.579143
     5  C    0.349405
     6  S   -0.514384
     7  C    1.056437
     8  C   -0.277087
     9  N    0.704572
    10  C   -0.584573
    11  C    0.303075
    12  C   -0.345913
    13  C    0.089608
    14  C    0.004102
    15  C    0.086318
    16  C   -0.535408
    17  C    0.437470
    18  C   -0.318794
    19  C    0.460324
    20  S   -0.370190
    21  C    1.286208
    22  C   -0.640824
    23  N    0.765659
    24  C   -0.892277
    25  C    0.180159
    26  C   -0.340348
    27  C    0.110618
    28  C   -0.110004
    29  C    0.074929
 Electronic spatial extent (au):  <R**2>=          33478.7295
 Charge=              1.0000 electrons
 Dipole moment (field-independent basis, Debye):
    X=             -1.0650    Y=              0.2277    Z=              0.6279  Tot=              1.2571
 Quadrupole moment (field-independent basis, Debye-Ang):
   XX=             33.4736   YY=           -148.5461   ZZ=           -195.6296
   XY=             27.2633   XZ=              4.8909   YZ=              5.1975
 Traceless Quadrupole moment (field-independent basis, Debye-Ang):
   XX=            137.0410   YY=            -44.9787   ZZ=            -92.0623
   XY=             27.2633   XZ=              4.8909   YZ=              5.1975
 Octapole moment (field-independent basis, Debye-Ang**2):
  XXX=            -97.5126  YYY=              6.9721  ZZZ=              4.5450  XYY=            -43.8344
  XXY=             17.7325  XXZ=             -8.4009  XZZ=              5.4409  YZZ=             -0.8842
  YYZ=              4.1575  XYZ=             23.4779
 Hexadecapole moment (field-independent basis, Debye-Ang**3):
 XXXX=         -27278.2476 YYYY=          -2518.7899 ZZZZ=           -396.8549 XXXY=            774.9533
 XXXZ=             -4.7895 YYYX=            111.2099 YYYZ=             39.2088 ZZZX=              1.8704
 ZZZY=              6.1385 XXYY=          -6231.6080 XXZZ=          -7900.5437 YYZZ=           -559.7834
 XXYZ=            255.4083 YYXZ=             37.9013 ZZXY=             67.7782
 N-N= 2.585855029803D+03 E-N=-9.541036559993D+03  KE= 1.867645398448D+03
 Unable to Open any file for archive entry.
 1\1\GINC-CN11\SP\RB3LYP TD-FC\6-311+G(d)\C25H25N2S2(1+)\2100011873\03-
 Nov-2023\0\\# td=(nstates=150) b3lyp/6-311+g* scrf(smd, solvent=ethano
 l)\\A-4\\1,1\C,0,-3.663712,-1.051948,-0.111557\C,0,-2.389638,-0.479979
 ,-0.083458\C,0,-1.194967,-1.195004,-0.064041\C,0,0.058349,-0.578322,-0
 .035613\C,0,-4.855344,-0.323764,-0.124892\S,0,-4.926662,1.436711,-0.06
 0618\C,0,-6.688233,1.402029,-0.083292\C,0,-7.154955,0.079357,-0.139452
 \N,0,-6.111858,-0.857268,-0.18359\C,0,-7.565153,2.482703,-0.048916\C,0
 ,-8.934956,2.22022,-0.065794\C,0,-9.407072,0.90276,-0.113224\C,0,-8.52
 9361,-0.179533,-0.14882\C,0,-6.366284,-2.306872,-0.248314\C,0,-6.46713
 7,-2.955883,1.133259\C,0,1.282162,-1.246091,-0.016052\C,0,2.511127,-0.
 582889,0.011938\C,0,3.741215,-1.244345,-0.008435\C,0,5.052439,-0.74902
 ,0.008808\S,0,6.36259,-1.866987,-0.365292\C,0,7.562983,-0.600806,-0.16
 552\C,0,6.941017,0.612357,0.169846\N,0,5.544832,0.495298,0.283261\C,0,
 8.946272,-0.695535,-0.30211\C,0,9.708364,0.454142,-0.100703\C,0,9.0929
 82,1.668657,0.22877\C,0,7.709445,1.764545,0.3665\C,0,4.732809,1.623027
 ,0.770139\C,0,4.282282,2.569892,-0.344236\H,0,-3.731831,-2.134826,-0.1
 13428\H,0,-2.310249,0.607987,-0.076294\H,0,-1.237617,-2.283434,-0.0726
 11\H,0,0.079156,0.512977,-0.027655\H,0,-7.192939,3.501353,-0.008437\H,
 0,-9.638205,3.046285,-0.038434\H,0,-10.476042,0.714855,-0.119701\H,0,-
 8.914544,-1.192671,-0.174894\H,0,-7.289207,-2.442036,-0.816617\H,0,-5.
 570728,-2.757498,-0.845647\H,0,-6.666359,-4.026758,1.023381\H,0,-5.536
 643,-2.835556,1.696522\H,0,-7.280055,-2.514652,1.717995\H,0,1.279871,-
 2.33528,-0.024232\H,0,2.47239,0.50228,0.013643\H,0,3.691082,-2.326769,
 -0.105404\H,0,9.416627,-1.639291,-0.55871\H,0,10.787594,0.40544,-0.203
 502\H,0,9.700309,2.555856,0.37729\H,0,7.251286,2.716142,0.611187\H,0,3
 .887111,1.202637,1.316886\H,0,5.342782,2.154926,1.505154\H,0,3.668719,
 2.054906,-1.089954\H,0,3.6925,3.387191,0.083941\H,0,5.141488,3.005946,
 -0.862588\\Version=ES64L-G16RevC.02\State=1-A\HF=-1873.7507099\RMSD=8.
 505e-09\PG=C01 [X(C25H25N2S2)]\\@
 The archive entry for this job was punched.


 THE RED LIGHT IS ALWAYS LONGER THAN THE GREEN LIGHT.

                     -- PETER'S THEORY OF RELATIVITY
 Job cpu time:       1 days 18 hours 12 minutes 31.7 seconds.
 Elapsed time:       0 days  1 hours 22 minutes 55.7 seconds.
 File lengths (MBytes):  RWF=  29184 Int=      0 D2E=      0 Chk=   2400 Scr=     32
 Normal termination of Gaussian 16 at Fri Nov  3 13:29:43 2023.
