 Entering Gaussian System, Link 0=g16
 Initial command:
 /nfs-share/home/2100011873/Gaussian16_AVX2/g16/l1.exe "/nfs-share/home/2100011873/GaussTmp/Gau-215608.inp" -scrdir="/nfs-share/home/2100011873/GaussTmp/"
 Entering Link 1 = /nfs-share/home/2100011873/Gaussian16_AVX2/g16/l1.exe PID=    215609.
  
 Copyright (c) 1988-2021, Gaussian, Inc.  All Rights Reserved.
  
 This is part of the Gaussian(R) 16 program.  It is based on
 the Gaussian(R) 09 system (copyright 2009, Gaussian, Inc.),
 the Gaussian(R) 03 system (copyright 2003, Gaussian, Inc.),
 the Gaussian(R) 98 system (copyright 1998, Gaussian, Inc.),
 the Gaussian(R) 94 system (copyright 1995, Gaussian, Inc.),
 the Gaussian 92(TM) system (copyright 1992, Gaussian, Inc.),
 the Gaussian 90(TM) system (copyright 1990, Gaussian, Inc.),
 the Gaussian 88(TM) system (copyright 1988, Gaussian, Inc.),
 the Gaussian 86(TM) system (copyright 1986, Carnegie Mellon
 University), and the Gaussian 82(TM) system (copyright 1983,
 Carnegie Mellon University). Gaussian is a federally registered
 trademark of Gaussian, Inc.
  
 This software contains proprietary and confidential information,
 including trade secrets, belonging to Gaussian, Inc.
  
 This software is provided under written license and may be
 used, copied, transmitted, or stored only in accord with that
 written license.
  
 The following legend is applicable only to US Government
 contracts under FAR:
  
                    RESTRICTED RIGHTS LEGEND
  
 Use, reproduction and disclosure by the US Government is
 subject to restrictions as set forth in subparagraphs (a)
 and (c) of the Commercial Computer Software - Restricted
 Rights clause in FAR 52.227-19.
  
 Gaussian, Inc.
 340 Quinnipiac St., Bldg. 40, Wallingford CT 06492
  
  
 ---------------------------------------------------------------
 Warning -- This program may not be used in any manner that
 competes with the business of Gaussian, Inc. or will provide
 assistance to any competitor of Gaussian, Inc.  The licensee
 of this program is prohibited from giving any competitor of
 Gaussian, Inc. access to this program.  By using this program,
 the user acknowledges that Gaussian, Inc. is engaged in the
 business of creating and licensing software in the field of
 computational chemistry and represents and warrants to the
 licensee that it is not a competitor of Gaussian, Inc. and that
 it will not use this program in any manner prohibited above.
 ---------------------------------------------------------------
  

 Cite this work as:
 Gaussian 16, Revision C.02,
 M. J. Frisch, G. W. Trucks, H. B. Schlegel, G. E. Scuseria, 
 M. A. Robb, J. R. Cheeseman, G. Scalmani, V. Barone, 
 G. A. Petersson, H. Nakatsuji, X. Li, M. Caricato, A. V. Marenich, 
 J. Bloino, B. G. Janesko, R. Gomperts, B. Mennucci, H. P. Hratchian, 
 J. V. Ortiz, A. F. Izmaylov, J. L. Sonnenberg, D. Williams-Young, 
 F. Ding, F. Lipparini, F. Egidi, J. Goings, B. Peng, A. Petrone, 
 T. Henderson, D. Ranasinghe, V. G. Zakrzewski, J. Gao, N. Rega, 
 G. Zheng, W. Liang, M. Hada, M. Ehara, K. Toyota, R. Fukuda, 
 J. Hasegawa, M. Ishida, T. Nakajima, Y. Honda, O. Kitao, H. Nakai, 
 T. Vreven, K. Throssell, J. A. Montgomery, Jr., J. E. Peralta, 
 F. Ogliaro, M. J. Bearpark, J. J. Heyd, E. N. Brothers, K. N. Kudin, 
 V. N. Staroverov, T. A. Keith, R. Kobayashi, J. Normand, 
 K. Raghavachari, A. P. Rendell, J. C. Burant, S. S. Iyengar, 
 J. Tomasi, M. Cossi, J. M. Millam, M. Klene, C. Adamo, R. Cammi, 
 J. W. Ochterski, R. L. Martin, K. Morokuma, O. Farkas, 
 J. B. Foresman, and D. J. Fox, Gaussian, Inc., Wallingford CT, 2019.
 
 ******************************************
 Gaussian 16:  ES64L-G16RevC.02  7-Dec-2021
                 3-Nov-2023 
 ******************************************
 %nprocshared=32
 Will use up to   32 processors via shared memory.
 %mem=128GB
 ------------------------------------------------------------
 # td=(nstates=150) b3lyp/6-311+g* scrf(smd, solvent=ethanol)
 ------------------------------------------------------------
 1/38=1,172=1/1;
 2/12=2,17=6,18=5,40=1/2;
 3/5=4,6=6,7=11,11=9,25=1,30=1,70=32201,72=4,74=-5/1,2,3,8;
 4//1;
 5/5=2,38=5,53=4/2;
 8/6=1,10=2,108=150/1;
 9/41=150,42=1,70=2/14;
 6/7=2,8=2,9=2,10=2/1;
 99/5=1,9=1/99;
 ---
 A-2
 ---
 Symbolic Z-matrix:
 Charge =  1 Multiplicity = 1
 C                     1.18593   1.12419   0.25907 
 C                    -0.06404   0.51889   0.18474 
 C                    -1.25506   1.23243   0.20607 
 C                    -2.57691   0.77597   0.13437 
 C                     2.39263   0.43147   0.17128 
 S                    -3.82767   1.97001  -0.18708 
 C                    -5.07788   0.74479  -0.13478 
 C                    -4.5092   -0.50864   0.11385 
 N                    -3.11837  -0.45818   0.27972 
 S                     2.5052   -1.30012  -0.12511 
 C                     4.26032  -1.22576  -0.10255 
 C                     4.68878   0.08701   0.11942 
 N                     3.62751   0.98166   0.28741 
 C                     5.15932  -2.26746  -0.2795 
 C                     6.51791  -1.9736   -0.23726 
 C                     6.95394  -0.66384  -0.02533 
 C                     6.05157   0.37821   0.15346 
 C                    -6.4468    0.90418  -0.30422 
 C                    -7.25123  -0.22611  -0.22641 
 C                    -6.68975  -1.48249   0.01487 
 C                    -5.32005  -1.6405    0.18625 
 C                     3.84714   2.41567   0.55458 
 C                     3.91176   3.24964  -0.71763 
 C                    -2.36937  -1.66031   0.69242 
 C                    -1.91885  -2.52299  -0.47911 
 H                     1.22885   2.1992    0.37656 
 H                    -0.09664  -0.55695   0.07224 
 H                    -1.16519   2.31437   0.2242 
 H                     4.81396  -3.27995  -0.44835 
 H                     7.24042  -2.76872  -0.37396 
 H                     8.01554  -0.44971  -0.00207 
 H                     6.40682   1.38809   0.30607 
 H                    -6.87574   1.88074  -0.49123 
 H                    -8.32188  -0.12916  -0.35743 
 H                    -7.33033  -2.35428   0.06736 
 H                    -4.90197  -2.62169   0.36374 
 H                     3.04859   2.7543    1.21217 
 H                     4.77271   2.49485   1.12204 
 H                     4.08254   4.2955   -0.45252 
 H                     4.72891   2.92447  -1.36454 
 H                     2.9782    3.18722  -1.27998 
 H                    -1.53167  -1.32932   1.3026 
 H                    -3.02767  -2.2247    1.35177 
 H                    -1.2761   -1.97256  -1.16835 
 H                    -1.35915  -3.37917  -0.09602 
 H                    -2.77567  -2.8996   -1.0408 
 
                          Input orientation:                          
 ---------------------------------------------------------------------
 Center     Atomic      Atomic             Coordinates (Angstroms)
 Number     Number       Type             X           Y           Z
 ---------------------------------------------------------------------
      1          6           0        1.185932    1.124188    0.259065
      2          6           0       -0.064042    0.518894    0.184736
      3          6           0       -1.255062    1.232433    0.206071
      4          6           0       -2.576908    0.775971    0.134368
      5          6           0        2.392634    0.431471    0.171283
      6         16           0       -3.827667    1.970009   -0.187075
      7          6           0       -5.077877    0.744792   -0.134775
      8          6           0       -4.509195   -0.508640    0.113846
      9          7           0       -3.118372   -0.458179    0.279721
     10         16           0        2.505198   -1.300121   -0.125106
     11          6           0        4.260315   -1.225762   -0.102553
     12          6           0        4.688784    0.087010    0.119416
     13          7           0        3.627512    0.981655    0.287411
     14          6           0        5.159317   -2.267461   -0.279503
     15          6           0        6.517913   -1.973596   -0.237257
     16          6           0        6.953940   -0.663841   -0.025333
     17          6           0        6.051566    0.378213    0.153458
     18          6           0       -6.446804    0.904176   -0.304215
     19          6           0       -7.251229   -0.226106   -0.226408
     20          6           0       -6.689747   -1.482485    0.014868
     21          6           0       -5.320051   -1.640504    0.186250
     22          6           0        3.847144    2.415669    0.554580
     23          6           0        3.911762    3.249637   -0.717632
     24          6           0       -2.369369   -1.660308    0.692423
     25          6           0       -1.918854   -2.522991   -0.479110
     26          1           0        1.228852    2.199196    0.376562
     27          1           0       -0.096636   -0.556945    0.072235
     28          1           0       -1.165193    2.314370    0.224199
     29          1           0        4.813961   -3.279951   -0.448352
     30          1           0        7.240415   -2.768718   -0.373960
     31          1           0        8.015538   -0.449707   -0.002068
     32          1           0        6.406822    1.388085    0.306065
     33          1           0       -6.875736    1.880738   -0.491225
     34          1           0       -8.321880   -0.129159   -0.357431
     35          1           0       -7.330326   -2.354283    0.067360
     36          1           0       -4.901973   -2.621689    0.363736
     37          1           0        3.048585    2.754296    1.212168
     38          1           0        4.772710    2.494849    1.122044
     39          1           0        4.082538    4.295496   -0.452515
     40          1           0        4.728911    2.924468   -1.364544
     41          1           0        2.978199    3.187215   -1.279982
     42          1           0       -1.531667   -1.329317    1.302601
     43          1           0       -3.027666   -2.224702    1.351768
     44          1           0       -1.276100   -1.972556   -1.168349
     45          1           0       -1.359149   -3.379171   -0.096017
     46          1           0       -2.775672   -2.899604   -1.040801
 ---------------------------------------------------------------------
                    Distance matrix (angstroms):
                    1          2          3          4          5
     1  C    0.000000
     2  C    1.390806   0.000000
     3  C    2.443967   1.388568   0.000000
     4  C    3.780975   2.526484   1.400277   0.000000
     5  C    1.394164   2.458268   3.734761   4.981605   0.000000
     6  S    5.103982   4.050784   2.704973   1.758821   6.417762
     7  C    6.287635   5.029081   3.868835   2.515603   7.483340
     8  C    5.926355   4.562920   3.691778   2.320427   6.965799
     9  N    4.585994   3.208212   2.517045   1.355521   5.583406
    10  S    2.786633   3.163196   4.545664   5.495934   1.760377
    11  C    3.886498   4.671876   6.046268   7.128161   2.511900
    12  C    3.655846   4.772855   6.053826   7.298299   2.322423
    13  N    2.445901   3.721863   4.889687   6.209715   1.356876
    14  C    5.251774   5.938246   7.323203   8.323638   3.891269
    15  C    6.186487   7.050725   8.419875   9.508627   4.792617
    16  C    6.045481   7.120047   8.428352   9.640313   4.695091
    17  C    4.923619   6.117306   7.356580   8.637658   3.659363
    18  C    7.656654   6.413047   5.227077   3.896779   8.864830
    19  C    8.558310   7.237384   6.186145   4.794121   9.674433
    20  C    8.299440   6.923463   6.078087   4.693650   9.283175
    21  C    7.069416   5.682309   4.977780   3.656074   7.986164
    22  C    2.972760   4.362558   5.249192   6.643315   2.489891
    23  C    3.591882   4.906959   5.623025   6.996268   3.322646
    24  C    4.536671   3.212662   3.137861   2.507978   5.227217
    25  C    4.846289   3.624098   3.874700   3.419436   5.266952
    26  H    1.082261   2.128799   2.670866   4.070385   2.126354
    27  H    2.122756   1.082196   2.135822   2.816429   2.680157
    28  H    2.635439   2.106615   1.085814   2.089900   4.025698
    29  H    5.749737   6.215057   7.590976   8.450740   4.474531
    30  H    7.225801   8.029672   9.408442  10.450026   5.834336
    31  H    7.013477   8.139576   9.424274  10.663996   5.694170
    32  H    5.227767   6.530107   7.664117   9.006196   4.128799
    33  H    8.131777   6.979306   5.700745   4.482388   9.404359
    34  H    9.609861   8.300952   7.218822   5.836594  10.742190
    35  H    9.201259   7.814589   7.056388   5.691921  10.114701
    36  H    7.148786   5.770691   5.308397   4.123425   7.910127
    37  H    2.652383   3.967504   4.674364   6.059834   2.628541
    38  H    3.935533   5.308212   6.226294   7.612288   3.290325
    39  H    4.353604   5.644726   6.189189   7.555111   4.263284
    40  H    4.292996   5.582065   6.413871   7.761299   3.745930
    41  H    3.136394   4.303553   4.893876   6.218818   3.169098
    42  H    3.807098   2.611404   2.800259   2.624792   4.447515
    43  H    5.492128   4.203849   4.050497   3.269447   6.150484
    44  H    4.205822   3.083382   3.487324   3.308107   4.586237
    45  H    5.184955   4.117163   4.622660   4.336037   5.354280
    46  H    5.794382   4.532219   4.576098   3.863985   6.267104
                    6          7          8          9         10
     6  S    0.000000
     7  C    1.751262   0.000000
     8  C    2.588191   1.398679   0.000000
     9  N    2.572371   2.336366   1.401588   0.000000
    10  S    7.127606   7.853966   7.062949   5.700640   0.000000
    11  C    8.696870   9.543896   8.801443   7.428347   1.756836
    12  C    8.727517   9.792086   9.217247   7.827810   2.598456
    13  N    7.535362   8.718838   8.273881   6.897835   2.576094
    14  C    9.936326  10.672149   9.835055   8.491547   2.829122
    15  C   11.071837  11.910604  11.129532   9.768405   4.070384
    16  C   11.099837  12.114489  11.465030  10.079029   4.495121
    17  C   10.012443  11.139208  10.598007   9.208868   3.933336
    18  C    2.830124   1.388551   2.434164   3.643549   9.221136
    19  C    4.067585   2.382121   2.777472   4.170196   9.815887
    20  C    4.489098   2.753413   2.390184   3.724791   9.197818
    21  C    3.924587   2.418955   1.394219   2.500804   7.838834
    22  C    7.723431   9.106209   8.864211   7.540090   4.008726
    23  C    7.862423   9.350272   9.258970   8.010331   4.798938
    24  C    4.009907   3.715478   2.497988   1.475277   4.955753
    25  C    4.890389   4.558113   3.334527   2.505617   4.603582
    26  H    5.092995   6.492425   6.350321   5.096016   3.758450
    27  H    4.513683   5.152682   4.413020   3.030461   2.713078
    28  H    2.715971   4.231020   4.377661   3.391905   5.163170
    29  H   10.114746  10.683883   9.742560   8.450704   3.058529
    30  H   12.041300  12.811802  11.974942  10.633455   4.963969
    31  H   12.089283  13.148458  12.525408  11.137479   5.576934
    32  H   10.262874  11.511146  11.081243   9.702510   4.757629
    33  H    3.064507   2.156323   3.416980   4.492513   9.912307
    34  H    4.963212   3.367035   3.860398   5.252686  10.892692
    35  H    5.570714   3.836489   3.371548   4.623945   9.893727
    36  H    4.747759   3.407734   2.163723   2.805186   7.540006
    37  H    7.060866   8.478900   8.305005   7.015755   4.303704
    38  H    8.715259  10.083470   9.807710   8.467530   4.593342
    39  H    8.249224   9.829632   9.859937   8.659486   5.822897
    40  H    8.689790  10.121087   9.965665   8.702055   4.932368
    41  H    6.999703   8.495722   8.465410   7.272534   4.657645
    42  H    4.286759   4.352423   3.309429   2.079134   4.281995
    43  H    4.539123   3.902700   2.583069   2.068361   5.800741
    44  H    4.797626   4.785997   3.773589   2.790020   3.979791
    45  H    5.891995   5.553153   4.266940   3.430487   4.388220
    46  H    5.054569   4.404844   3.170965   2.796744   5.593249
                   11         12         13         14         15
    11  C    0.000000
    12  C    1.398652   0.000000
    13  N    2.329206   1.398181   0.000000
    14  C    1.387319   2.433942   3.636561   0.000000
    15  C    2.382047   2.778313   4.166918   1.390656   0.000000
    16  C    2.752696   2.390745   3.724324   2.420097   1.396599
    17  C    2.418028   1.393963   2.501624   2.825448   2.429227
    18  C   10.918777  11.173564  10.091970  12.031705  13.280435
    19  C   11.555531  11.949123  10.957632  12.577424  13.879593
    20  C   10.953700  11.486741  10.610942  11.878685  13.219192
    21  C    9.593687  10.157044   9.324421  10.508433  11.850219
    22  C    3.723245   2.514036   1.475132   4.934491   5.198621
    23  C    4.530895   3.362532   2.496928   5.673334   5.857042
    24  C    6.691302   7.293763   6.565561   7.615405   8.941266
    25  C    6.325087   7.129602   6.605473   7.085594   8.458095
    26  H    4.598876   4.061845   2.691454   5.985817   6.764845
    27  H    4.411450   4.828783   4.035204   5.538468   6.771628
    28  H    6.486558   6.264276   4.974952   7.826003   8.810772
    29  H    2.155410   3.416790   4.484450   1.083013   2.157447
    30  H    3.366804   3.861272   5.249360   2.142697   1.083012
    31  H    3.835891   3.371960   4.624648   3.396940   2.149519
    32  H    3.406854   2.163166   2.808932   3.906683   3.407116
    33  H   11.567759  11.718723  10.570376  12.731649  13.939520
    34  H   12.632463  13.021194  12.018224  13.649948  14.954459
    35  H   11.646690  12.264649  11.456488  12.494760  13.856819
    36  H    9.279739   9.968920   9.259699  10.088052  11.454039
    37  H    4.363215   3.316440   2.081487   5.647859   6.040698
    38  H    3.950333   2.609597   2.073125   4.979297   4.986024
    39  H    5.535194   4.290221   3.425796   6.652954   6.728960
    40  H    4.363097   3.202330   2.777869   5.321531   5.335010
    41  H    4.743894   3.807320   2.782593   5.959171   6.344353
    42  H    5.960892   6.488445   5.743547   6.939195   8.220827
    43  H    7.498506   8.149006   7.463577   8.348028   9.680193
    44  H    5.687312   6.440496   5.906946   6.503200   7.849431
    45  H    6.017939   6.974118   6.635556   6.615132   8.002731
    46  H    7.292953   8.123058   7.604544   7.996451   9.374108
                   16         17         18         19         20
    16  C    0.000000
    17  C    1.390008   0.000000
    18  C   13.495051  12.517801   0.000000
    19  C   14.213334  13.321931   1.389493   0.000000
    20  C   13.668284  12.877207   2.420121   1.397127   0.000000
    21  C   12.314605  11.549457   2.825867   2.429044   1.389392
    22  C    4.412693   3.028465  10.439708  11.435156  11.247798
    23  C    5.004941   3.685463  10.628828  11.701900  11.632778
    24  C    9.403840   8.680910   4.918876   5.170468   4.376799
    25  C    9.076829   8.505570   5.681408   5.811520   4.907962
    26  H    6.413668   5.159876   7.813849   8.840669   8.740126
    27  H    7.052061   6.219446   6.526961   7.168462   6.658005
    28  H    8.651724   7.472303   5.492111   6.610363   6.706760
    29  H    3.406242   3.908453  12.013847  12.447652  11.652500
    30  H    2.152700   3.405100  14.171626  14.713748  13.994820
    31  H    1.083229   2.137013  14.528717  15.270052  14.741517
    32  H    2.149317   1.081359  12.877201  13.763412  13.410633
    33  H   14.069537  13.030285   1.082880   2.156366   3.406170
    34  H   15.288782  14.391469   2.141617   1.082986   2.152663
    35  H   14.384243  13.658293   3.396503   2.149812   1.083111
    36  H   12.022779  11.358858   3.906966   3.406771   2.148402
    37  H    5.335435   3.972975   9.792077  10.818432  10.687327
    38  H    4.006440   2.655895  11.421119  12.401493  12.183306
    39  H    5.746517   4.425989  11.063005  12.204519  12.232973
    40  H    4.429470   3.246099  11.406248  12.439663  12.317052
    41  H    5.675499   4.403502   9.746541  10.835219  10.814431
    42  H    8.614627   7.857583   5.632843   6.022320   5.318600
    43  H   10.196330   9.520692   4.921652   4.931887   3.968504
    44  H    8.411467   7.808199   5.979841   6.295991   5.563070
    45  H    8.745597   8.312573   6.653919   6.683968   5.659062
    46  H   10.034698   9.491600   5.337463   5.276499   4.294490
                   21         22         23         24         25
    21  C    0.000000
    22  C   10.031235   0.000000
    23  C   10.486031   1.522564   0.000000
    24  C    2.993848   7.434892   8.096198   0.000000
    25  C    3.576259   7.661959   8.208301   1.523048   0.000000
    26  H    7.593922   2.633250   3.081995   5.286089   5.739275
    27  H    5.335838   4.962106   5.584014   2.601415   2.736749
    28  H    5.736315   5.024235   5.247594   4.179395   4.945979
    29  H   10.285364   5.863505   6.597120   7.451499   6.775303
    30  H   12.623471   6.265329   6.886119   9.732096   9.163168
    31  H   13.389974   5.088786   5.571190  10.478271  10.159637
    32  H   12.112236   2.769411   3.276989   9.298575   9.232004
    33  H    3.908743  10.787030  10.876362   5.852126   6.630509
    34  H    3.404516  12.465675  12.696771   6.235303   6.836957
    35  H    2.136544  12.162469  12.585892   5.048108   5.441610
    36  H    1.081210  10.097447  10.645363   2.728804   3.101472
    37  H    9.507936   1.088479   2.171305   7.008073   7.442152
    38  H   10.947177   1.088557   2.166874   8.274007   8.515835
    39  H   11.137899   2.145554   1.092370   8.854919   9.083456
    40  H   11.145652   2.172424   1.091770   8.696946   8.640115
    41  H    9.711728   2.171628   1.091638   7.482335   7.564984
    42  H    3.961683   6.596671   7.394530   1.087942   2.179281
    43  H    2.637186   8.332560   9.077801   1.089326   2.161147
    44  H    4.277702   6.962229   7.374846   2.180644   1.091404
    45  H    4.334903   7.817220   8.491761   2.143985   1.092279
    46  H    3.092709   8.640547   9.090620   2.169102   1.091545
                   26         27         28         29         30
    26  H    0.000000
    27  H    3.073410   0.000000
    28  H    2.401652   3.067468   0.000000
    29  H    6.599586   5.639125   8.215780   0.000000
    30  H    7.834688   7.676154   9.841231   2.480841   0.000000
    31  H    7.295146   8.113223   9.590471   4.296457   2.473243
    32  H    5.241588   6.792112   7.628900   4.989680   4.293754
    33  H    8.157133   7.226063   5.771496  12.778246  14.862601
    34  H    9.857812   8.247560   7.584675  13.508741  15.784567
    35  H    9.699964   7.453638   7.734972  12.190428  14.583313
    36  H    7.799238   5.238263   6.192550   9.772009  12.165665
    37  H    2.077932   4.707035   4.350350   6.502770   7.112730
    38  H    3.633467   5.841753   6.008110   5.984660   6.002727
    39  H    3.636670   6.425499   5.649910   7.610676   7.738312
    40  H    3.975913   6.121313   6.134883   6.272277   6.300895
    41  H    2.603946   5.030093   4.493564   6.773911   7.379736
    42  H    4.574759   2.041978   3.817553   6.865698   9.046113
    43  H    6.216096   3.606876   5.034222   8.114499  10.426293
    44  H    5.105394   2.221292   4.508794   6.270289   8.590457
    45  H    6.167597   3.096322   5.705836   6.183953   8.625683
    46  H    6.636482   3.728825   5.601731   7.622217  10.039114
                   31         32         33         34         35
    31  H    0.000000
    32  H    2.461786   0.000000
    33  H   15.080461  13.315582   0.000000
    34  H   16.344426  14.821502   2.479701   0.000000
    35  H   15.463757  14.239787   4.295820   2.472813   0.000000
    36  H   13.103946  11.998769   4.989844   4.292849   2.460944
    37  H    6.034122   3.737019  10.107265  11.834924  11.624541
    38  H    4.522164   2.135666  11.775656  13.436612  13.080899
    39  H    6.179672   3.798786  11.221244  13.170277  13.219050
    40  H    4.903398   2.822551  11.684173  13.441059  13.241630
    41  H    6.343110   4.184241   9.971412  11.812757  11.780884
    42  H    9.676001   8.449672   6.487013   7.092466   6.016712
    43  H   11.266580  10.156539   5.921056   5.944860   4.492146
    44  H    9.487561   8.514405   6.830981   7.327941   6.190827
    45  H    9.822186   9.121332   7.632533   7.688338   6.060697
    46  H   11.114458  10.223332   6.321727   6.237210   4.719139
                   36         37         38         39         40
    36  H    0.000000
    37  H    9.634958   0.000000
    38  H   10.970574   1.745864   0.000000
    39  H   11.368164   2.493096   2.489559   0.000000
    40  H   11.247255   3.080893   2.523809   1.768986   0.000000
    41  H    9.926847   2.530451   3.077234   1.769902   1.772337
    42  H    3.729699   6.137001   7.375772   8.138689   8.025160
    43  H    2.155651   7.856891   9.119912   9.814450   9.698288
    44  H    3.989438   6.834683   7.860770   8.277433   7.751096
    45  H    3.651952   7.665434   8.578314   9.414859   8.854914
    46  H    2.563419   8.424038   9.526599   9.957439   9.504914
                   41         42         43         44         45
    41  H    0.000000
    42  H    6.885324   0.000000
    43  H    8.502080   1.744175   0.000000
    44  H    6.688405   2.566060   3.079375   0.000000
    45  H    7.958127   2.487528   2.492555   1.770694   0.000000
    46  H    8.379356   3.082999   2.498676   1.767598   1.768937
                   46
    46  H    0.000000
 Stoichiometry    C21H21N2S2(1+)
 Framework group  C1[X(C21H21N2S2)]
 Deg. of freedom   132
 Full point group                 C1      NOp   1
 Largest Abelian subgroup         C1      NOp   1
 Largest concise Abelian subgroup C1      NOp   1
                         Standard orientation:                         
 ---------------------------------------------------------------------
 Center     Atomic      Atomic             Coordinates (Angstroms)
 Number     Number       Type             X           Y           Z
 ---------------------------------------------------------------------
      1          6           0        1.185932    1.124188    0.259065
      2          6           0       -0.064042    0.518894    0.184736
      3          6           0       -1.255062    1.232433    0.206071
      4          6           0       -2.576908    0.775971    0.134368
      5          6           0        2.392634    0.431471    0.171283
      6         16           0       -3.827667    1.970009   -0.187075
      7          6           0       -5.077877    0.744792   -0.134775
      8          6           0       -4.509195   -0.508640    0.113846
      9          7           0       -3.118372   -0.458179    0.279721
     10         16           0        2.505198   -1.300121   -0.125106
     11          6           0        4.260315   -1.225762   -0.102553
     12          6           0        4.688784    0.087010    0.119416
     13          7           0        3.627512    0.981655    0.287411
     14          6           0        5.159317   -2.267461   -0.279503
     15          6           0        6.517913   -1.973596   -0.237257
     16          6           0        6.953940   -0.663841   -0.025333
     17          6           0        6.051566    0.378213    0.153458
     18          6           0       -6.446804    0.904176   -0.304215
     19          6           0       -7.251229   -0.226106   -0.226408
     20          6           0       -6.689747   -1.482485    0.014868
     21          6           0       -5.320051   -1.640504    0.186250
     22          6           0        3.847144    2.415669    0.554580
     23          6           0        3.911762    3.249637   -0.717632
     24          6           0       -2.369369   -1.660308    0.692423
     25          6           0       -1.918854   -2.522991   -0.479110
     26          1           0        1.228852    2.199196    0.376562
     27          1           0       -0.096636   -0.556945    0.072235
     28          1           0       -1.165193    2.314370    0.224199
     29          1           0        4.813961   -3.279951   -0.448352
     30          1           0        7.240415   -2.768718   -0.373960
     31          1           0        8.015538   -0.449707   -0.002068
     32          1           0        6.406822    1.388085    0.306065
     33          1           0       -6.875736    1.880738   -0.491225
     34          1           0       -8.321880   -0.129159   -0.357431
     35          1           0       -7.330326   -2.354283    0.067360
     36          1           0       -4.901973   -2.621689    0.363736
     37          1           0        3.048585    2.754296    1.212168
     38          1           0        4.772710    2.494849    1.122044
     39          1           0        4.082538    4.295496   -0.452515
     40          1           0        4.728911    2.924468   -1.364544
     41          1           0        2.978199    3.187215   -1.279982
     42          1           0       -1.531667   -1.329317    1.302601
     43          1           0       -3.027666   -2.224702    1.351768
     44          1           0       -1.276100   -1.972556   -1.168349
     45          1           0       -1.359149   -3.379171   -0.096017
     46          1           0       -2.775672   -2.899604   -1.040801
 ---------------------------------------------------------------------
 Rotational constants (GHZ):           0.5429629           0.0715335           0.0638922
 Standard basis: 6-311+G(d) (5D, 7F)
 There are   654 symmetry adapted cartesian basis functions of A   symmetry.
 There are   629 symmetry adapted basis functions of A   symmetry.
   629 basis functions,  1033 primitive gaussians,   654 cartesian basis functions
    96 alpha electrons       96 beta electrons
       nuclear repulsion energy      2285.6548009337 Hartrees.
 NAtoms=   46 NActive=   46 NUniq=   46 SFac= 1.00D+00 NAtFMM=   60 NAOKFM=F Big=F
 Integral buffers will be    131072 words long.
 Regular integral format.
 Two-electron integral symmetry is turned on.
 ------------------------------------------------------------------------------
 Polarizable Continuum Model (PCM)
 =================================
 Model                : PCM.
 Atomic radii         : SMD-Coulomb.
 Polarization charges : Total charges.
 Charge compensation  : None.
 Solution method      : On-the-fly selection.
 Cavity type          : VdW (van der Waals Surface) (Alpha=1.000).
 Cavity algorithm     : GePol (No added spheres)
                        Default sphere list used, NSphG=   46.
                        Lebedev-Laikov grids with approx.  5.0 points / Ang**2.
                        Smoothing algorithm: York/Karplus (Gamma=1.0000).
                        Polarization charges: spherical gaussians, with
                                              point-specific exponents (IZeta= 3).
                        Self-potential: point-specific (ISelfS= 7).
                        Self-field    : sphere-specific E.n sum rule (ISelfD= 2).
 Solvent              : Ethanol, Eps=  24.852000 Eps(inf)=   1.852593
 ------------------------------------------------------------------------------
 ------------------------------------------------------------------------------
 Atomic radii for non-electrostatic terms: SMD-CDS.
 ------------------------------------------------------------------------------
 Nuclear repulsion after PCM non-electrostatic terms =     2285.6487450168 Hartrees.
 One-electron integrals computed using PRISM.
 NBasis=   629 RedAO= T EigKep=  1.16D-06  NBF=   629
 NBsUse=   623 1.00D-06 EigRej=  9.74D-07 NBFU=   623
 ExpMin= 4.05D-02 ExpMax= 9.34D+04 ExpMxC= 3.17D+03 IAcc=3 IRadAn=         5 AccDes= 0.00D+00
 Harris functional with IExCor=  402 and IRadAn=       5 diagonalized for initial guess.
 HarFok:  IExCor=  402 AccDes= 0.00D+00 IRadAn=         5 IDoV= 1 UseB2=F ITyADJ=14
 ICtDFT=  3500011 ScaDFX=  1.000000  1.000000  1.000000  1.000000
 FoFCou: FMM=F IPFlag=           0 FMFlag=      100000 FMFlg1=           0
         NFxFlg=           0 DoJE=T BraDBF=F KetDBF=T FulRan=T
         wScrn=  0.000000 ICntrl=       500 IOpCl=  0 I1Cent=   200000004 NGrid=           0
         NMat0=    1 NMatS0=      1 NMatT0=    0 NMatD0=    1 NMtDS0=    0 NMtDT0=    0
 Petite list used in FoFCou.
 Requested convergence on RMS density matrix=1.00D-08 within 128 cycles.
 Requested convergence on MAX density matrix=1.00D-06.
 Requested convergence on             energy=1.00D-06.
 No special actions if energy rises.
 Inv3:  Mode=1 IEnd=    37446267.
 Iteration    1 A*A^-1 deviation from unit magnitude is 3.55D-15 for   3012.
 Iteration    1 A*A^-1 deviation from orthogonality  is 2.25D-15 for   2440   2261.
 Iteration    1 A^-1*A deviation from unit magnitude is 3.33D-15 for   2473.
 Iteration    1 A^-1*A deviation from orthogonality  is 1.82D-15 for   2937   2119.
 Error on total polarization charges =  0.06464
 SCF Done:  E(RB3LYP) =  -1718.89744357     A.U. after   15 cycles
            NFock= 15  Conv=0.54D-08     -V/T= 2.0029
 SMD-CDS (non-electrostatic) energy       (kcal/mol) =      -3.80
 (included in total energy above)
 DoSCS=F DFT=T ScalE2(SS,OS)=  1.000000  1.000000
 ExpMin= 4.05D-02 ExpMax= 9.34D+04 ExpMxC= 3.17D+03 IAcc=3 IRadAn=         5 AccDes= 0.00D+00
 HarFok:  IExCor=  205 AccDes= 0.00D+00 IRadAn=         5 IDoV=-2 UseB2=F ITyADJ=14
 ICtDFT= 12500011 ScaDFX=  1.000000  1.000000  1.000000  1.000000
 GSVD:  LWork=       -1353 too small for GESVD, short by        5940 words or        5940 for optimal perf.
 Range of M.O.s used for correlation:    34   623
 NBasis=   629 NAE=    96 NBE=    96 NFC=    33 NFV=     0
 NROrb=    590 NOA=    63 NOB=    63 NVA=   527 NVB=   527

 **** Warning!!: The largest alpha MO coefficient is  0.13733763D+03

 NEqPCM:  Using non-equilibrium solvation (IEInf=1, Eps=  24.8520, EpsInf=   1.8526)
 Inv3:  Mode=1 IEnd=    37446267.
 Iteration    1 A*A^-1 deviation from unit magnitude is 3.77D-15 for    895.
 Iteration    1 A*A^-1 deviation from orthogonality  is 2.11D-15 for   2257    888.
 Iteration    1 A^-1*A deviation from unit magnitude is 4.00D-15 for    895.
 Iteration    1 A^-1*A deviation from orthogonality  is 1.95D-15 for   1410    238.
 Orbital symmetries:
       Occupied  (A) (A) (A) (A) (A) (A) (A) (A) (A) (A) (A) (A)
                 (A) (A) (A) (A) (A) (A) (A) (A) (A) (A) (A) (A)
                 (A) (A) (A) (A) (A) (A) (A) (A) (A) (A) (A) (A)
                 (A) (A) (A) (A) (A) (A) (A) (A) (A) (A) (A) (A)
                 (A) (A) (A) (A) (A) (A) (A) (A) (A) (A) (A) (A)
                 (A) (A) (A) (A) (A) (A) (A) (A) (A) (A) (A) (A)
                 (A) (A) (A) (A) (A) (A) (A) (A) (A) (A) (A) (A)
                 (A) (A) (A) (A) (A) (A) (A) (A) (A) (A) (A) (A)
       Virtual   (A) (A) (A) (A) (A) (A) (A) (A) (A) (A) (A) (A)
                 (A) (A) (A) (A) (A) (A) (A) (A) (A) (A) (A) (A)
                 (A) (A) (A) (A) (A) (A) (A) (A) (A) (A) (A) (A)
                 (A) (A) (A) (A) (A) (A) (A) (A) (A) (A) (A) (A)
                 (A) (A) (A) (A) (A) (A) (A) (A) (A) (A) (A) (A)
                 (A) (A) (A) (A) (A) (A) (A) (A) (A) (A) (A) (A)
                 (A) (A) (A) (A) (A) (A) (A) (A) (A) (A) (A) (A)
                 (A) (A) (A) (A) (A) (A) (A) (A) (A) (A) (A) (A)
                 (A) (A) (A) (A) (A) (A) (A) (A) (A) (A) (A) (A)
                 (A) (A) (A) (A) (A) (A) (A) (A) (A) (A) (A) (A)
                 (A) (A) (A) (A) (A) (A) (A) (A) (A) (A) (A) (A)
                 (A) (A) (A) (A) (A) (A) (A) (A) (A) (A) (A) (A)
                 (A) (A) (A) (A) (A) (A) (A) (A) (A) (A) (A) (A)
                 (A) (A) (A) (A) (A) (A) (A) (A) (A) (A) (A) (A)
                 (A) (A) (A) (A) (A) (A) (A) (A) (A) (A) (A) (A)
                 (A) (A) (A) (A) (A) (A) (A) (A) (A) (A) (A) (A)
                 (A) (A) (A) (A) (A) (A) (A) (A) (A) (A) (A) (A)
                 (A) (A) (A) (A) (A) (A) (A) (A) (A) (A) (A) (A)
                 (A) (A) (A) (A) (A) (A) (A) (A) (A) (A) (A) (A)
                 (A) (A) (A) (A) (A) (A) (A) (A) (A) (A) (A) (A)
                 (A) (A) (A) (A) (A) (A) (A) (A) (A) (A) (A) (A)
                 (A) (A) (A) (A) (A) (A) (A) (A) (A) (A) (A) (A)
                 (A) (A) (A) (A) (A) (A) (A) (A) (A) (A) (A) (A)
                 (A) (A) (A) (A) (A) (A) (A) (A) (A) (A) (A) (A)
                 (A) (A) (A) (A) (A) (A) (A) (A) (A) (A) (A) (A)
                 (A) (A) (A) (A) (A) (A) (A) (A) (A) (A) (A) (A)
                 (A) (A) (A) (A) (A) (A) (A) (A) (A) (A) (A) (A)
                 (A) (A) (A) (A) (A) (A) (A) (A) (A) (A) (A) (A)
                 (A) (A) (A) (A) (A) (A) (A) (A) (A) (A) (A) (A)
                 (A) (A) (A) (A) (A) (A) (A) (A) (A) (A) (A) (A)
                 (A) (A) (A) (A) (A) (A) (A) (A) (A) (A) (A) (A)
                 (A) (A) (A) (A) (A) (A) (A) (A) (A) (A) (A) (A)
                 (A) (A) (A) (A) (A) (A) (A) (A) (A) (A) (A) (A)
                 (A) (A) (A) (A) (A) (A) (A) (A) (A) (A) (A) (A)
                 (A) (A) (A) (A) (A) (A) (A) (A) (A) (A) (A) (A)
                 (A) (A) (A) (A) (A) (A) (A) (A) (A) (A) (A) (A)
                 (A) (A) (A) (A) (A) (A) (A) (A) (A) (A) (A) (A)
                 (A) (A) (A) (A) (A) (A) (A) (A) (A) (A) (A) (A)
                 (A) (A) (A) (A) (A) (A) (A) (A) (A) (A) (A) (A)
                 (A) (A) (A) (A) (A) (A) (A) (A) (A) (A) (A) (A)
                 (A) (A) (A) (A) (A) (A) (A) (A) (A) (A) (A) (A)
                 (A) (A) (A) (A) (A) (A) (A) (A) (A) (A) (A) (A)
                 (A) (A) (A) (A) (A) (A) (A) (A) (A) (A) (A) (A)
                 (A) (A) (A) (A) (A) (A) (A) (A) (A) (A) (A)
   600 initial guesses have been made.
 Convergence on wavefunction:    0.001000000000000
 Iteration     1 Dimension   600 NMult     0 NNew    600
 CISAX will form   320 AO SS matrices at one time.
 New state      4 was old state      8
 New state      7 was old state      4
 New state      8 was old state     10
 New state      9 was old state      7
 New state     10 was old state      9
 New state     11 was old state     12
 New state     12 was old state     11
 New state     13 was old state     14
 New state     14 was old state     13
 New state     17 was old state     18
 New state     18 was old state     26
 New state     19 was old state     17
 New state     20 was old state     36
 New state     21 was old state     27
 New state     22 was old state     42
 New state     23 was old state     20
 New state     24 was old state     28
 New state     25 was old state     23
 New state     26 was old state     25
 New state     27 was old state     32
 New state     28 was old state     37
 New state     29 was old state     19
 New state     30 was old state     24
 New state     31 was old state     34
 New state     32 was old state     46
 New state     33 was old state     38
 New state     34 was old state     29
 New state     35 was old state     40
 New state     36 was old state     33
 New state     37 was old state     21
 New state     38 was old state     43
 New state     39 was old state     30
 New state     40 was old state     35
 New state     41 was old state     44
 New state     42 was old state     45
 New state     43 was old state     49
 New state     44 was old state     31
 New state     45 was old state     60
 New state     46 was old state     51
 New state     48 was old state     39
 New state     49 was old state     48
 New state     50 was old state     54
 New state     51 was old state     50
 New state     52 was old state     53
 New state     53 was old state     61
 New state     54 was old state     55
 New state     55 was old state     63
 New state     56 was old state     59
 New state     57 was old state     56
 New state     58 was old state     57
 New state     59 was old state     68
 New state     60 was old state     58
 New state     61 was old state     67
 New state     62 was old state     64
 New state     63 was old state     69
 New state     64 was old state     65
 New state     65 was old state     74
 New state     66 was old state     81
 New state     67 was old state     73
 New state     68 was old state     66
 New state     69 was old state     71
 New state     71 was old state     78
 New state     73 was old state     87
 New state     74 was old state     75
 New state     75 was old state     80
 New state     76 was old state     79
 New state     78 was old state     82
 New state     79 was old state     90
 New state     80 was old state     83
 New state     81 was old state     95
 New state     82 was old state     85
 New state     83 was old state     88
 New state     84 was old state     89
 New state     85 was old state     84
 New state     86 was old state     94
 New state     87 was old state     86
 New state     88 was old state     91
 New state     89 was old state     92
 New state     90 was old state    140
 New state     91 was old state     98
 New state     92 was old state    109
 New state     93 was old state    138
 New state     94 was old state     93
 New state     95 was old state     96
 New state     96 was old state     97
 New state     97 was old state     99
 New state     98 was old state    103
 New state     99 was old state    100
 New state    100 was old state    104
 New state    101 was old state    150
 New state    103 was old state    116
 New state    104 was old state     76
 New state    105 was old state    101
 New state    106 was old state    107
 New state    107 was old state    106
 New state    108 was old state    114
 New state    109 was old state    111
 New state    110 was old state    115
 New state    111 was old state    123
 New state    112 was old state    105
 New state    113 was old state    117
 New state    114 was old state    119
 New state    115 was old state    121
 New state    116 was old state    148
 New state    117 was old state    118
 New state    118 was old state    136
 New state    119 was old state    126
 New state    120 was old state    143
 New state    121 was old state    108
 New state    122 was old state    128
 New state    123 was old state    131
 New state    124 was old state    127
 New state    125 was old state    134
 New state    126 was old state    120
 New state    127 was old state    130
 New state    128 was old state    124
 New state    129 was old state    139
 New state    130 was old state    113
 New state    131 was old state    112
 New state    132 was old state    137
 New state    133 was old state    110
 New state    134 was old state    129
 New state    135 was old state    132
 New state    136 was old state    152
 New state    137 was old state    194
 New state    138 was old state    156
 New state    139 was old state    197
 New state    140 was old state    144
 New state    141 was old state    133
 New state    142 was old state    147
 New state    143 was old state    141
 New state    144 was old state    146
 New state    145 was old state    153
 New state    146 was old state    160
 New state    147 was old state    164
 New state    148 was old state    122
 New state    149 was old state    135
 New state    150 was old state    145
 Iteration     2 Dimension   900 NMult   600 NNew    300
 New state      4 was old state      5
 New state      5 was old state      4
 New state     13 was old state     14
 New state     14 was old state     13
 New state     17 was old state     18
 New state     18 was old state     17
 New state     19 was old state     21
 New state     20 was old state     19
 New state     21 was old state     20
 New state     22 was old state     23
 New state     23 was old state     22
 New state     24 was old state     26
 New state     25 was old state     24
 New state     26 was old state     25
 New state     27 was old state     34
 New state     28 was old state     35
 New state     29 was old state     27
 New state     30 was old state     28
 New state     31 was old state     33
 New state     32 was old state     29
 New state     33 was old state     30
 New state     34 was old state     31
 New state     35 was old state     32
 New state     36 was old state     41
 New state     37 was old state     36
 New state     38 was old state     39
 New state     39 was old state     44
 New state     40 was old state     46
 New state     41 was old state     38
 New state     42 was old state     48
 New state     43 was old state     40
 New state     44 was old state     52
 New state     45 was old state     42
 New state     46 was old state     45
 New state     47 was old state     43
 New state     48 was old state     49
 New state     49 was old state     47
 No map to state     52
 New state     55 was old state     56
 New state     56 was old state     55
 New state     58 was old state     59
 New state     59 was old state     58
 New state     63 was old state     67
 New state     65 was old state     63
 New state     66 was old state     65
 New state     67 was old state     66
 New state     68 was old state     69
 New state     69 was old state     68
 New state     70 was old state     79
 New state     71 was old state     70
 New state     72 was old state     76
 New state     73 was old state     72
 New state     74 was old state     71
 New state     75 was old state     73
 New state     76 was old state     75
 New state     77 was old state     74
 New state     78 was old state     77
 New state     79 was old state     78
 New state     83 was old state     89
 New state     85 was old state     83
 New state     86 was old state     94
 New state     87 was old state     85
 New state     88 was old state     86
 New state     89 was old state     87
 No map to state     90
 New state     91 was old state     88
 New state     92 was old state     90
 New state     93 was old state     91
 New state     94 was old state     92
 New state     95 was old state     93
 New state     96 was old state     95
 New state     97 was old state     96
 New state     98 was old state    100
 New state     99 was old state     97
 New state    100 was old state     98
 New state    101 was old state    103
 New state    102 was old state    101
 New state    103 was old state    102
 New state    105 was old state    106
 New state    106 was old state    105
 New state    108 was old state    112
 New state    109 was old state    108
 New state    110 was old state    124
 New state    111 was old state    109
 New state    112 was old state    111
 New state    113 was old state    110
 New state    114 was old state    118
 New state    115 was old state    121
 New state    116 was old state    119
 New state    117 was old state    113
 New state    118 was old state    115
 New state    119 was old state    116
 New state    120 was old state    122
 New state    121 was old state    117
 New state    122 was old state    114
 New state    123 was old state    120
 New state    124 was old state    127
 New state    126 was old state    128
 New state    127 was old state    131
 New state    128 was old state    126
 New state    129 was old state    123
 New state    131 was old state    129
 New state    132 was old state    135
 New state    133 was old state    132
 New state    134 was old state    137
 New state    135 was old state    133
 New state    136 was old state    134
 New state    137 was old state    136
 New state    138 was old state    141
 New state    139 was old state    138
 New state    140 was old state    139
 New state    141 was old state    142
 New state    142 was old state    148
 New state    143 was old state    140
 New state    144 was old state    147
 New state    145 was old state    146
 New state    146 was old state    149
 New state    147 was old state    143
 New state    148 was old state    144
 New state    149 was old state    145
 New state    150 was old state    152
 Iteration     3 Dimension  1200 NMult   900 NNew    300
 Iteration     4 Dimension  1486 NMult  1200 NNew    286
 Iteration     5 Dimension  1566 NMult  1486 NNew     80
 ***********************************************************************
 Excited states from <AA,BB:AA,BB> singles matrix:
 ***********************************************************************
 
 Ground to excited state transition densities written to RWF  633
 Ground to excited state transition electric dipole moments (Au):
       state          X           Y           Z        Dip. S.      Osc.
         1         5.1549     -0.2287     -0.0024     26.6258      1.6884
         2        -0.5199     -0.3274     -0.0609      0.3812      0.0359
         3         0.0819     -0.3918      0.0587      0.1637      0.0156
         4        -0.3073     -0.1499     -0.0476      0.1192      0.0117
         5         0.0217      0.1645     -0.0802      0.0340      0.0034
         6        -0.8456     -0.4756     -0.0009      0.9413      0.0957
         7        -0.1704      0.5147     -0.0166      0.2942      0.0301
         8        -0.1504     -0.1626     -0.0530      0.0519      0.0055
         9        -0.2384     -0.3992     -0.1548      0.2401      0.0256
        10         0.0197      0.5703      0.0331      0.3268      0.0364
        11         0.1630      0.1253     -0.0032      0.0423      0.0049
        12         0.5401      0.1191      0.0061      0.3060      0.0359
        13         0.1265     -0.3278      0.0405      0.1251      0.0153
        14        -0.0444      0.0230     -0.0206      0.0029      0.0004
        15         0.1225      0.2784      0.1614      0.1186      0.0154
        16        -0.0058     -0.0050     -0.0303      0.0010      0.0001
        17         0.7606     -0.2151     -0.0188      0.6251      0.0830
        18         0.4087      0.1421      0.0727      0.1925      0.0257
        19         0.0437     -0.4656     -0.0903      0.2268      0.0304
        20         0.0462      0.1964      0.0994      0.0506      0.0068
        21        -0.0540     -0.0020      0.0806      0.0094      0.0013
        22        -0.2075     -0.2752     -0.0373      0.1201      0.0164
        23         0.2816      0.0086      0.0138      0.0795      0.0109
        24         0.3617     -0.5266      0.0419      0.4099      0.0561
        25        -0.2613      0.1714      0.2572      0.1638      0.0228
        26        -0.0477      0.0711     -0.1592      0.0327      0.0046
        27        -0.7965      0.2264      0.0446      0.6877      0.0966
        28         0.3003      0.4477      0.0721      0.2958      0.0418
        29         0.0908     -0.0326      0.0263      0.0100      0.0014
        30         0.1761      0.0415      0.0035      0.0327      0.0047
        31        -0.2347      0.0171      0.0658      0.0597      0.0086
        32         0.1726     -0.1356      0.0367      0.0495      0.0072
        33        -0.0293     -0.0829      0.0156      0.0080      0.0012
        34         0.1193      0.0718      0.0490      0.0218      0.0032
        35         0.1481      0.0016      0.0643      0.0261      0.0038
        36        -0.2071      0.0582     -0.0624      0.0502      0.0073
        37        -0.9206     -0.5086      0.0078      1.1062      0.1623
        38         0.4064      1.0639     -0.0574      1.3005      0.1915
        39         0.5825     -0.4562      0.0121      0.5476      0.0811
        40         0.5881     -0.0291     -0.0017      0.3467      0.0517
        41        -0.1577      0.0730      0.0599      0.0338      0.0051
        42         0.9068     -0.1654      0.0362      0.8511      0.1287
        43        -0.1580     -0.0027     -0.0074      0.0250      0.0038
        44         0.9605      0.0187      0.0082      0.9230      0.1408
        45         0.1300      0.0008     -0.1706      0.0460      0.0071
        46         0.4115      0.0783      0.1980      0.2147      0.0331
        47        -0.2187     -0.0343     -0.1427      0.0694      0.0107
        48        -0.0577      0.3479      0.1391      0.1437      0.0222
        49        -0.1689     -0.0387      0.1123      0.0426      0.0066
        50         0.2117      0.2181     -0.0626      0.0963      0.0150
        51         0.0197      0.1693     -0.0481      0.0314      0.0049
        52         0.0677      0.0871      0.0047      0.0122      0.0019
        53        -0.1156     -0.1364      0.0173      0.0323      0.0051
        54        -0.0162      0.0303      0.0479      0.0035      0.0005
        55        -0.4026     -0.0805     -0.0476      0.1708      0.0271
        56         0.1055      0.0617     -0.0250      0.0156      0.0025
        57        -0.1127      0.0194      0.0220      0.0136      0.0022
        58         0.6146     -0.1742     -0.0481      0.4104      0.0658
        59        -0.0580      0.1980     -0.0818      0.0492      0.0079
        60        -0.2975      0.3135     -0.0206      0.1872      0.0302
        61        -0.1265      0.4702      0.0245      0.2377      0.0385
        62         0.4818     -0.0364     -0.0186      0.2338      0.0380
        63        -0.7373     -0.6044      0.0020      0.9089      0.1479
        64        -0.6058     -0.1666     -0.0032      0.3947      0.0643
        65         0.1369     -0.1869      0.0069      0.0537      0.0088
        66        -0.5797     -0.1830      0.0050      0.3695      0.0605
        67        -0.0751      0.0917      0.0056      0.0141      0.0023
        68        -0.4774      0.1978     -0.0252      0.2677      0.0439
        69        -0.0077      0.0236      0.0065      0.0007      0.0001
        70         0.1996     -0.2465      0.1253      0.1163      0.0193
        71        -0.4851     -0.1544     -0.0645      0.2633      0.0438
        72         0.2942      0.2531     -0.1092      0.1625      0.0272
        73        -0.2357     -0.0404     -0.0839      0.0642      0.0107
        74         0.0098      0.1477      0.0228      0.0224      0.0038
        75         0.0431     -0.0465     -0.1092      0.0159      0.0027
        76        -0.0922     -0.0162      0.0563      0.0119      0.0020
        77         0.0544     -0.1012     -0.0347      0.0144      0.0024
        78         0.0643      0.0161      0.0818      0.0111      0.0019
        79         0.0971     -0.1196     -0.1026      0.0342      0.0058
        80        -0.0274     -0.0923     -0.2590      0.0764      0.0130
        81        -0.0441      0.2319     -0.2245      0.1061      0.0182
        82         0.1500     -0.3634      0.0798      0.1609      0.0276
        83         0.2081     -0.0588     -0.1078      0.0584      0.0100
        84         0.0907      0.0991      0.0464      0.0202      0.0035
        85        -0.0562      0.0073     -0.0109      0.0033      0.0006
        86        -0.0015     -0.0246      0.1177      0.0145      0.0025
        87        -0.1017     -0.0595      0.0285      0.0147      0.0025
        88        -0.0463      0.0174      0.1026      0.0130      0.0023
        89        -0.1190      0.0240     -0.1725      0.0445      0.0077
        90         0.0011     -0.0140     -0.0287      0.0010      0.0002
        91        -0.1407      0.0447     -0.1146      0.0349      0.0061
        92        -0.1371      0.1354     -0.0210      0.0376      0.0066
        93         0.0172     -0.1966     -0.2213      0.0879      0.0154
        94        -0.0063      0.0204     -0.1128      0.0132      0.0023
        95         0.0265     -0.1081      0.1316      0.0297      0.0052
        96        -0.0476      0.0003      0.0632      0.0063      0.0011
        97        -0.0938      0.0982     -0.1029      0.0290      0.0051
        98         0.0821      0.0988      0.0506      0.0191      0.0034
        99        -0.2311      0.0913      0.0507      0.0643      0.0114
       100         0.0576     -0.1044     -0.0908      0.0225      0.0040
       101         0.0102      0.0693      0.0010      0.0049      0.0009
       102         0.0369      0.1130      0.0821      0.0209      0.0037
       103         0.1251     -0.2289     -0.0379      0.0695      0.0124
       104        -0.1070      0.0859     -0.0616      0.0226      0.0041
       105        -0.2994     -0.3241     -0.0829      0.2016      0.0361
       106         0.4219     -0.5504      0.0725      0.4863      0.0874
       107        -0.1303      0.5696     -0.0072      0.3414      0.0614
       108        -0.0648     -0.0153     -0.0823      0.0112      0.0020
       109         0.2580     -0.6635      0.0177      0.5071      0.0915
       110         0.1688     -0.5917      0.1531      0.4020      0.0726
       111        -0.1835      0.2649      0.0259      0.1045      0.0189
       112        -0.1536      0.4444      0.1520      0.2442      0.0442
       113         0.2115     -0.3021     -0.1246      0.1515      0.0275
       114         0.4364     -0.5211     -0.0054      0.4621      0.0840
       115        -0.4134     -0.0181     -0.0699      0.1761      0.0321
       116         0.3188      0.0537     -0.0295      0.1054      0.0193
       117         0.0871     -0.1313     -0.0622      0.0287      0.0053
       118         0.1986      0.0914      0.2021      0.0886      0.0163
       119        -0.0271     -0.1146      0.1093      0.0258      0.0047
       120         0.0414     -0.1768     -0.1274      0.0492      0.0091
       121         0.1140      0.0250      0.0229      0.0141      0.0026
       122        -0.0477     -0.0042      0.0779      0.0084      0.0015
       123        -0.0941     -0.2920      0.0694      0.0989      0.0183
       124         0.1925     -0.0215      0.0076      0.0376      0.0070
       125        -0.1047      0.1310      0.0716      0.0333      0.0062
       126         0.0546     -0.0820      0.0116      0.0098      0.0018
       127        -0.0518     -0.2413     -0.0020      0.0609      0.0114
       128         0.0359      0.1676      0.0450      0.0314      0.0059
       129        -0.0790     -0.0248      0.0955      0.0160      0.0030
       130        -0.1841     -0.2428     -0.0495      0.0953      0.0178
       131         0.2216      0.1652     -0.0098      0.0765      0.0144
       132        -0.0588     -0.0100      0.0521      0.0063      0.0012
       133         0.0962     -0.0206      0.0121      0.0098      0.0018
       134        -0.1796     -0.0528     -0.0020      0.0351      0.0066
       135         0.1154     -0.0012      0.0561      0.0165      0.0031
       136         0.1173     -0.0832      0.0349      0.0219      0.0041
       137        -0.1448     -0.0681     -0.0263      0.0263      0.0050
       138         0.2072      0.0660     -0.0684      0.0520      0.0098
       139        -0.0568     -0.0280      0.1054      0.0151      0.0029
       140        -0.0987     -0.0844     -0.1431      0.0373      0.0071
       141         0.0626      0.1071     -0.0194      0.0158      0.0030
       142        -0.1241      0.0540      0.1693      0.0470      0.0089
       143         0.4161     -0.1663     -0.0009      0.2008      0.0383
       144        -0.0187      0.0666     -0.0421      0.0066      0.0013
       145         0.1627     -0.0358      0.0501      0.0303      0.0058
       146         0.1749     -0.1530      0.0862      0.0614      0.0118
       147        -0.4180      0.0039     -0.0112      0.1748      0.0335
       148         0.0747     -0.1150     -0.0943      0.0277      0.0053
       149         0.4792     -0.2469      0.0982      0.3003      0.0577
       150        -0.2258      0.1564      0.0094      0.0755      0.0145
 Ground to excited state transition velocity dipole moments (Au):
       state          X           Y           Z        Dip. S.      Osc.
         1        -0.4831      0.0199      0.0004      0.2338      1.6383
         2         0.0715      0.0434      0.0079      0.0071      0.0333
         3        -0.0074      0.0550     -0.0074      0.0031      0.0146
         4         0.0427      0.0218      0.0069      0.0023      0.0106
         5        -0.0029     -0.0239      0.0137      0.0008      0.0034
         6         0.1230      0.0751      0.0007      0.0208      0.0908
         7         0.0272     -0.0762      0.0024      0.0065      0.0284
         8         0.0224      0.0256      0.0089      0.0012      0.0052
         9         0.0379      0.0629      0.0245      0.0060      0.0250
        10         0.0005     -0.0994     -0.0054      0.0099      0.0395
        11        -0.0297     -0.0218      0.0001      0.0014      0.0052
        12        -0.0963     -0.0217     -0.0008      0.0098      0.0370
        13        -0.0253      0.0601     -0.0102      0.0044      0.0158
        14         0.0079     -0.0030      0.0082      0.0001      0.0005
        15        -0.0225     -0.0538     -0.0344      0.0046      0.0157
        16        -0.0006      0.0006      0.0062      0.0000      0.0001
        17        -0.1494      0.0471      0.0042      0.0246      0.0822
        18        -0.0767     -0.0302     -0.0151      0.0070      0.0234
        19        -0.0068      0.0913      0.0180      0.0087      0.0289
        20        -0.0085     -0.0374     -0.0187      0.0018      0.0060
        21         0.0123     -0.0011     -0.0185      0.0005      0.0016
        22         0.0406      0.0548      0.0088      0.0047      0.0154
        23        -0.0557     -0.0014     -0.0001      0.0031      0.0101
        24        -0.0729      0.1068     -0.0083      0.0168      0.0545
        25         0.0512     -0.0330     -0.0527      0.0065      0.0208
        26         0.0096     -0.0145      0.0296      0.0012      0.0037
        27         0.1589     -0.0550     -0.0096      0.0284      0.0898
        28        -0.0657     -0.0890     -0.0178      0.0126      0.0395
        29        -0.0195      0.0092     -0.0041      0.0005      0.0015
        30        -0.0373     -0.0056     -0.0006      0.0014      0.0044
        31         0.0482     -0.0045     -0.0138      0.0025      0.0078
        32        -0.0365      0.0303     -0.0078      0.0023      0.0071
        33         0.0065      0.0167     -0.0031      0.0003      0.0010
        34        -0.0257     -0.0158     -0.0100      0.0010      0.0031
        35        -0.0319      0.0005     -0.0106      0.0011      0.0034
        36         0.0467     -0.0128      0.0126      0.0025      0.0076
        37         0.1972      0.1113     -0.0022      0.0513      0.1554
        38        -0.0886     -0.2331      0.0123      0.0623      0.1881
        39        -0.1278      0.1097     -0.0036      0.0284      0.0852
        40        -0.1317      0.0124      0.0009      0.0175      0.0521
        41         0.0344     -0.0155     -0.0138      0.0016      0.0048
        42        -0.2046      0.0342     -0.0096      0.0431      0.1268
        43         0.0365      0.0020      0.0016      0.0013      0.0039
        44        -0.2130     -0.0067     -0.0012      0.0454      0.1323
        45        -0.0288     -0.0001      0.0414      0.0025      0.0074
        46        -0.0928     -0.0180     -0.0494      0.0114      0.0328
        47         0.0498      0.0081      0.0333      0.0037      0.0105
        48         0.0110     -0.0808     -0.0338      0.0078      0.0224
        49         0.0379      0.0090     -0.0258      0.0022      0.0062
        50        -0.0488     -0.0498      0.0187      0.0052      0.0149
        51        -0.0027     -0.0379      0.0115      0.0016      0.0045
        52        -0.0154     -0.0195      0.0006      0.0006      0.0017
        53         0.0276      0.0323     -0.0054      0.0018      0.0052
        54         0.0035     -0.0081     -0.0147      0.0003      0.0008
        55         0.0961      0.0133      0.0102      0.0095      0.0266
        56        -0.0203     -0.0112      0.0064      0.0006      0.0016
        57         0.0235     -0.0055     -0.0037      0.0006      0.0017
        58        -0.1415      0.0406      0.0101      0.0218      0.0604
        59         0.0069     -0.0446      0.0185      0.0024      0.0066
        60         0.0711     -0.0726      0.0053      0.0104      0.0285
        61         0.0290     -0.1164     -0.0063      0.0144      0.0396
        62        -0.1174      0.0098      0.0048      0.0139      0.0380
        63         0.1778      0.1464     -0.0010      0.0530      0.1448
        64         0.1474      0.0400      0.0015      0.0233      0.0636
        65        -0.0305      0.0434      0.0002      0.0028      0.0077
        66         0.1447      0.0436     -0.0045      0.0228      0.0620
        67         0.0191     -0.0217     -0.0032      0.0008      0.0023
        68         0.1153     -0.0470      0.0095      0.0156      0.0423
        69         0.0022     -0.0065     -0.0008      0.0000      0.0001
        70        -0.0511      0.0631     -0.0310      0.0076      0.0202
        71         0.1177      0.0403      0.0174      0.0158      0.0421
        72        -0.0726     -0.0631      0.0255      0.0099      0.0263
        73         0.0572      0.0126      0.0197      0.0038      0.0102
        74        -0.0029     -0.0358     -0.0062      0.0013      0.0035
        75        -0.0102      0.0110      0.0269      0.0009      0.0025
        76         0.0214      0.0054     -0.0141      0.0007      0.0018
        77        -0.0127      0.0261      0.0104      0.0010      0.0025
        78        -0.0143     -0.0049     -0.0203      0.0006      0.0017
        79        -0.0278      0.0363      0.0276      0.0029      0.0074
        80         0.0077      0.0233      0.0696      0.0054      0.0142
        81         0.0113     -0.0605      0.0593      0.0073      0.0190
        82        -0.0368      0.0949     -0.0208      0.0108      0.0280
        83        -0.0512      0.0160      0.0283      0.0037      0.0095
        84        -0.0240     -0.0249     -0.0125      0.0014      0.0035
        85         0.0131     -0.0019      0.0013      0.0002      0.0005
        86        -0.0024      0.0079     -0.0321      0.0011      0.0028
        87         0.0318      0.0174     -0.0071      0.0014      0.0035
        88         0.0120     -0.0039     -0.0250      0.0008      0.0020
        89         0.0291     -0.0072      0.0476      0.0032      0.0081
        90        -0.0014      0.0040      0.0088      0.0001      0.0002
        91         0.0344     -0.0071      0.0263      0.0019      0.0049
        92         0.0394     -0.0276      0.0055      0.0023      0.0060
        93        -0.0071      0.0497      0.0593      0.0060      0.0153
        94         0.0014     -0.0060      0.0306      0.0010      0.0025
        95        -0.0056      0.0259     -0.0342      0.0019      0.0047
        96         0.0101      0.0004     -0.0176      0.0004      0.0010
        97         0.0212     -0.0254      0.0259      0.0018      0.0044
        98        -0.0176     -0.0273     -0.0143      0.0013      0.0032
        99         0.0622     -0.0228     -0.0156      0.0046      0.0116
       100        -0.0167      0.0269      0.0221      0.0015      0.0037
       101        -0.0055     -0.0169     -0.0001      0.0003      0.0008
       102        -0.0088     -0.0311     -0.0232      0.0016      0.0040
       103        -0.0347      0.0588      0.0110      0.0048      0.0119
       104         0.0287     -0.0222      0.0170      0.0016      0.0040
       105         0.0769      0.0896      0.0209      0.0144      0.0356
       106        -0.1138      0.1438     -0.0206      0.0340      0.0842
       107         0.0384     -0.1501      0.0021      0.0240      0.0593
       108         0.0142      0.0056      0.0238      0.0008      0.0020
       109        -0.0711      0.1773     -0.0070      0.0365      0.0900
       110        -0.0498      0.1588     -0.0420      0.0295      0.0725
       111         0.0498     -0.0705     -0.0074      0.0075      0.0184
       112         0.0431     -0.1191     -0.0408      0.0177      0.0435
       113        -0.0592      0.0807      0.0370      0.0114      0.0279
       114        -0.1210      0.1401      0.0040      0.0343      0.0838
       115         0.1129      0.0055      0.0169      0.0131      0.0319
       116        -0.0911     -0.0202      0.0091      0.0088      0.0213
       117        -0.0239      0.0348      0.0175      0.0021      0.0051
       118        -0.0557     -0.0258     -0.0591      0.0072      0.0175
       119         0.0064      0.0332     -0.0321      0.0022      0.0053
       120        -0.0129      0.0487      0.0326      0.0036      0.0087
       121        -0.0311     -0.0037     -0.0024      0.0010      0.0024
       122         0.0139     -0.0047     -0.0221      0.0007      0.0017
       123         0.0235      0.0795     -0.0223      0.0074      0.0177
       124        -0.0519      0.0076     -0.0022      0.0028      0.0066
       125         0.0277     -0.0316     -0.0206      0.0022      0.0053
       126        -0.0130      0.0157     -0.0058      0.0004      0.0011
       127         0.0154      0.0671      0.0011      0.0047      0.0113
       128        -0.0122     -0.0439     -0.0120      0.0022      0.0053
       129         0.0213      0.0092     -0.0263      0.0012      0.0029
       130         0.0537      0.0702      0.0144      0.0080      0.0191
       131        -0.0643     -0.0449      0.0024      0.0062      0.0146
       132         0.0178      0.0020     -0.0144      0.0005      0.0012
       133        -0.0291      0.0053     -0.0013      0.0009      0.0021
       134         0.0540      0.0170      0.0021      0.0032      0.0076
       135        -0.0334      0.0007     -0.0160      0.0014      0.0032
       136        -0.0362      0.0238     -0.0081      0.0019      0.0046
       137         0.0407      0.0206      0.0058      0.0021      0.0050
       138        -0.0581     -0.0232      0.0183      0.0042      0.0100
       139         0.0180      0.0068     -0.0204      0.0008      0.0018
       140         0.0309      0.0265      0.0312      0.0026      0.0062
       141        -0.0170     -0.0335     -0.0014      0.0014      0.0033
       142         0.0383     -0.0122     -0.0453      0.0037      0.0086
       143        -0.1226      0.0487      0.0014      0.0174      0.0405
       144         0.0056     -0.0212      0.0095      0.0006      0.0013
       145        -0.0481      0.0122     -0.0140      0.0027      0.0062
       146        -0.0529      0.0393     -0.0259      0.0050      0.0116
       147         0.1161     -0.0054      0.0034      0.0135      0.0313
       148        -0.0215      0.0362      0.0304      0.0027      0.0062
       149        -0.1399      0.0722     -0.0296      0.0257      0.0594
       150         0.0664     -0.0463     -0.0025      0.0066      0.0152
 Ground to excited state transition magnetic dipole moments (Au):
       state          X           Y           Z
         1         0.0439     -0.3183      1.3301
         2        -0.0329      0.0300      0.0827
         3        -0.0807     -0.0023     -0.0955
         4        -0.0179     -0.0500      0.2382
         5         0.0411     -0.0618      0.6819
         6         0.0272     -0.1854      0.1989
         7        -0.0412      0.1320      1.2418
         8        -0.1468     -0.1243      0.5122
         9        -0.0406      0.0953      1.3360
        10        -0.0269      0.2362     -0.4304
        11        -0.2266     -0.0190     -0.0081
        12         0.1727      0.0864      0.0838
        13         0.0107      0.0335     -0.5793
        14        -0.1422      0.1164      0.0503
        15        -0.1269      0.0048      0.1306
        16        -0.0199     -0.5293     -0.0666
        17        -0.0760     -0.2139      0.3204
        18         0.1140     -0.2175     -0.2516
        19        -0.0089     -0.2188      0.9481
        20         0.1615      0.4244     -0.0610
        21        -0.0852     -0.4422      0.0800
        22        -0.1581     -0.1731      0.7497
        23        -0.2792     -0.3162     -0.5176
        24         0.0354      0.0039     -0.2724
        25         0.0565     -0.0684     -0.5296
        26         0.0651      0.1093     -0.0163
        27        -0.0802      0.2685     -1.3243
        28         0.1092      0.0295     -0.6819
        29         0.0270      0.0812     -0.1747
        30         0.0976     -0.3508     -0.2097
        31        -0.0455      0.1807      0.4897
        32        -0.0042     -0.0168     -0.3587
        33        -0.0234      0.0270     -0.2325
        34         0.0015     -0.0714     -0.0154
        35         0.0714      0.0033      0.0504
        36         0.0861     -0.0492      0.1131
        37         0.0176     -0.2655     -0.1141
        38        -0.0196      0.1957      1.9637
        39         0.0756     -0.4660      0.1606
        40        -0.0473     -0.0767      0.6591
        41         0.0273     -0.1068      0.0573
        42        -0.0023     -0.1006     -2.3225
        43        -0.0776     -0.0529      0.9104
        44        -0.0416     -0.2889      1.3565
        45        -0.0515     -0.0556      0.6616
        46         0.0308      0.2213     -0.4070
        47         0.1654     -0.2755      0.1009
        48         0.0360     -0.2200     -1.3673
        49         0.2156     -0.1705     -0.2538
        50         0.0194      0.3194     -0.6252
        51         0.0390     -0.1348     -0.6474
        52         0.1062     -0.1051     -0.0518
        53        -0.1872      0.2149      0.3600
        54        -0.3590     -0.1236     -0.4040
        55         0.0647     -0.0003     -0.1452
        56        -0.1910      0.0941      0.2044
        57         0.0539     -0.2847      0.3103
        58        -0.0805     -0.1373      0.9893
        59        -0.0383      0.2416      0.5527
        60        -0.0387      0.1421     -0.0281
        61        -0.1804      0.0210      0.3703
        62        -0.0070     -0.5818     -0.3836
        63        -0.0628      0.0143     -1.8348
        64        -0.1510     -0.5900      0.5081
        65        -0.0002      0.1603     -0.3481
        66         0.0982      0.0991      0.2093
        67         0.1037      0.0027     -0.3498
        68         0.3615     -0.0493      0.2651
        69        -0.2628     -0.1959      0.3632
        70         0.0549     -0.1756     -2.1440
        71         0.3850     -0.5048     -0.4820
        72        -0.1779     -0.1133      0.0033
        73        -0.0674     -0.5253     -0.1470
        74        -0.1142     -0.1374      0.0319
        75         0.2072      0.1176      0.0824
        76         0.2757      0.1962     -0.2591
        77         0.1560      0.1035     -0.0743
        78         0.0463      0.2857     -0.1632
        79        -0.0777      0.0674     -0.0253
        80        -0.3343     -0.0422     -0.0554
        81         0.2773      0.3829      0.0479
        82         0.2203     -0.0878      0.0387
        83        -0.0483      0.1740      0.3424
        84        -0.0309      0.1184     -0.0124
        85        -0.0852      0.2329      0.2462
        86         0.1723      0.1497      0.1272
        87        -0.0965     -0.1187     -0.2253
        88         0.0328     -0.0857      0.0858
        89        -0.0590     -0.4910      0.0565
        90         0.0512      0.5643     -0.0402
        91        -0.1072     -0.0318      0.1677
        92        -0.0902      0.4565     -0.2717
        93         0.0403      0.0299      0.2173
        94         0.0091      0.1178     -0.3601
        95        -0.0547     -0.5978     -0.0890
        96        -0.0484     -0.2380      0.0973
        97         0.0062      0.0395     -0.2404
        98         0.1335     -0.5126     -0.3515
        99         0.0740     -0.3568      0.6556
       100         0.0070      0.1635     -0.3339
       101         0.0746     -0.3542     -0.2522
       102        -0.0929     -0.0177     -0.7063
       103        -0.0288      0.2659      0.3590
       104         0.0106     -0.3224      0.4925
       105         0.0873      0.2107      2.6653
       106         0.2459     -0.4003     -0.5287
       107         0.2436      0.0999     -1.0383
       108         0.1911     -0.2840      0.5561
       109        -0.1665     -0.5657      0.7595
       110        -0.1544     -0.0160      0.3951
       111         0.0249      0.1413      0.2924
       112         0.3377      0.6550     -0.0270
       113        -0.1504     -0.2514      0.1016
       114         0.0416     -0.0000     -0.0119
       115        -0.0452      0.0243      2.6700
       116        -0.0978      0.0306      0.4324
       117         0.1013      0.1161     -0.0115
       118        -0.2919     -0.1058     -0.0957
       119         0.0522     -0.1376     -0.2057
       120        -0.0497      0.3932     -0.4237
       121         0.0937      0.1957     -0.1783
       122         0.0862      0.0601     -0.5927
       123        -0.1132      0.3378      0.5282
       124         0.0866     -0.0640     -0.1719
       125         0.0067      0.0792     -0.5510
       126         0.2846      0.0774     -0.5254
       127         0.4223     -0.1742      0.1814
       128         0.1426      0.3476      0.2648
       129         0.1078      0.1719     -0.2163
       130        -0.1614      0.1142     -0.7177
       131        -0.0259     -0.1491     -0.1610
       132        -0.3346     -0.1607     -0.0785
       133        -0.1756     -0.1657      0.1719
       134        -0.0868     -0.0126      0.1518
       135         0.1919      0.3300     -0.1995
       136        -0.1240      0.0499     -0.2562
       137        -0.2990     -0.0767     -0.0085
       138        -0.1870      0.2572      0.0884
       139         0.0024      0.2292     -0.0115
       140        -0.0080      0.1774     -0.8397
       141         0.0796      0.3169     -0.0086
       142        -0.1375     -0.1659     -1.0903
       143         0.0698     -0.0297     -0.1387
       144         0.2225      0.1929      0.1901
       145         0.4289     -0.3756     -0.1682
       146         0.0787      0.2628     -0.3514
       147        -0.0297      0.1382      0.8155
       148         0.1508      0.8042      0.2208
       149        -0.1539     -0.1581     -0.5134
       150        -0.1811     -0.1012      0.2852
 Ground to excited state transition velocity quadrupole moments (Au):
       state          XX          YY          ZZ          XY          XZ          YZ
         1         0.2354     -0.0687     -0.0068      0.1887      0.0351     -0.0497
         2        -0.0511      0.0368     -0.0111      0.2881      0.0169      0.0047
         3         0.3081      0.0885      0.0031     -0.3520      0.0508     -0.0079
         4        -1.3659     -0.1493     -0.0106      0.0758      0.0041     -0.0027
         5         0.6428     -0.0233     -0.0171      0.3338     -0.0668     -0.0074
         6         1.3438     -0.0255     -0.0126     -0.3165      0.0886      0.0023
         7         2.3356     -0.0451      0.0004      0.7086     -0.0220      0.0115
         8        -1.0918     -0.0415      0.0058      0.2582     -0.1260      0.0554
         9        -3.3405     -0.0756     -0.0205      0.7033     -0.0001     -0.0060
        10         0.2713      0.1010      0.0012     -0.4561     -0.1283     -0.0281
        11        -0.0567      0.0046      0.0084     -0.2667     -0.0135     -0.1675
        12        -0.0543      0.0660     -0.0079     -0.5232     -0.1141      0.0804
        13        -1.3439     -0.3030     -0.0696     -0.2297     -0.0359      0.0596
        14         0.0698      0.0595     -0.1166     -0.0694     -0.0927     -0.0820
        15         1.5119     -0.0862      0.0036     -0.0948     -0.0054     -0.1142
[...]
    33  H    0.053884  -0.026591   0.027638   0.000000  -0.000000   0.000495
    34  H    0.329547   0.022861  -0.052440   0.000000   0.000000  -0.000117
    35  H    0.016235   0.343543  -0.102810   0.000000   0.000000   0.000644
    36  H   -0.002866  -0.041586   0.341980   0.000000  -0.000000   0.015519
    37  H    0.000000  -0.000000   0.000002   0.429580  -0.036835   0.000198
    38  H    0.000000  -0.000000  -0.000000   0.432889  -0.046482  -0.000005
    39  H    0.000000  -0.000000   0.000000  -0.105261   0.406944  -0.000001
    40  H   -0.000000   0.000000   0.000000   0.024696   0.365438   0.000000
    41  H   -0.000000   0.000000  -0.000001   0.038293   0.350967  -0.000043
    42  H    0.000196   0.011788   0.015970   0.000152  -0.000031   0.410073
    43  H    0.000116   0.016163  -0.008844   0.000015  -0.000001   0.433527
    44  H    0.000392  -0.002076  -0.009648   0.000057  -0.000023   0.078086
    45  H   -0.000144   0.001499  -0.009638   0.000017  -0.000002  -0.105640
    46  H    0.002260   0.017994   0.028556  -0.000002  -0.000000  -0.005572
              25         26         27         28         29         30
     1  C   -0.078075   0.285091   0.106429   0.180975  -0.000614   0.000364
     2  C    0.119773   0.007971   0.353297   0.022522   0.000951  -0.000129
     3  C    0.086956   0.151203  -0.204634   0.225754   0.000332  -0.000010
     4  C   -0.142586   0.028036  -0.010677  -0.152254   0.000026  -0.000001
     5  C    0.009214  -0.094564  -0.024795  -0.005909  -0.004667   0.001237
     6  S   -0.115391   0.002559   0.002379   0.016266   0.000000  -0.000000
     7  C   -0.026600   0.000564   0.002888   0.010492   0.000000  -0.000000
     8  C   -0.194613  -0.000819  -0.016462  -0.002050   0.000000  -0.000000
     9  N    0.171341  -0.000232  -0.001823   0.010797   0.000000  -0.000000
    10  S   -0.031374  -0.024751   0.064003   0.005104   0.036644   0.001106
    11  C   -0.004890  -0.025111   0.010088   0.000161  -0.131595  -0.000348
    12  C    0.007680   0.020016  -0.017204  -0.003245  -0.004228   0.034526
    13  N    0.000104  -0.037059   0.002977  -0.000088  -0.000280   0.000883
    14  C    0.002452  -0.002769  -0.000412  -0.000040   0.402167  -0.000613
    15  C   -0.000658  -0.000704   0.000835   0.000014   0.028924   0.297185
    16  C    0.000123   0.000486  -0.000039  -0.000016  -0.019726   0.048924
    17  C   -0.000326  -0.002847  -0.001490  -0.000089   0.020097  -0.053680
    18  C    0.031161   0.000075   0.000304  -0.000013   0.000000  -0.000000
    19  C    0.003016   0.000005   0.000176   0.000480   0.000000  -0.000000
    20  C   -0.013574  -0.000006   0.000078  -0.000058   0.000000   0.000000
    21  C    0.140666  -0.000013   0.007476   0.003704   0.000000   0.000000
    22  C    0.000787   0.006388   0.001799   0.000695   0.000497   0.000038
    23  C   -0.000043  -0.007378   0.000798   0.000249   0.000001   0.000030
    24  C   -0.641285  -0.000203   0.004681  -0.006952  -0.000008   0.000000
    25  C    6.406888   0.000552  -0.007032   0.000353   0.000081  -0.000000
    26  H    0.000552   0.408279   0.003411   0.001684   0.000000   0.000000
    27  H   -0.007032   0.003411   0.447992   0.004758   0.000003   0.000000
    28  H    0.000353   0.001684   0.004758   0.416529   0.000000  -0.000000
    29  H    0.000081   0.000000   0.000003   0.000000   0.401380  -0.004436
    30  H   -0.000000   0.000000   0.000000  -0.000000  -0.004436   0.412614
    31  H   -0.000000   0.000000   0.000000   0.000000  -0.000233  -0.005119
    32  H   -0.000000  -0.000009   0.000000  -0.000000   0.000050  -0.000230
    33  H    0.000044  -0.000000  -0.000000   0.000002   0.000000  -0.000000
    34  H    0.000018   0.000000   0.000000  -0.000000  -0.000000   0.000000
    35  H    0.000477   0.000000   0.000000   0.000000  -0.000000  -0.000000
    36  H    0.000675  -0.000000  -0.000016   0.000000  -0.000000   0.000000
    37  H   -0.000031  -0.001111   0.000040   0.000075  -0.000001  -0.000000
    38  H    0.000004   0.000608   0.000002   0.000001  -0.000000  -0.000000
    39  H   -0.000001   0.000056  -0.000001  -0.000000   0.000000   0.000000
    40  H    0.000002   0.000087  -0.000000  -0.000001  -0.000000   0.000000
    41  H    0.000006  -0.000361  -0.000005  -0.000008  -0.000000  -0.000000
    42  H   -0.025116   0.000002  -0.001040  -0.000152  -0.000000   0.000000
    43  H   -0.046224   0.000002   0.001034   0.000016   0.000000   0.000000
    44  H    0.300610  -0.000003  -0.000438  -0.000088  -0.000000   0.000000
    45  H    0.410187  -0.000000  -0.002040  -0.000002   0.000000   0.000000
    46  H    0.379176   0.000000   0.000855   0.000008  -0.000000  -0.000000
              31         32         33         34         35         36
     1  C   -0.000639  -0.003113   0.000077  -0.000004   0.000005  -0.000156
     2  C   -0.000002  -0.000263  -0.000502   0.000084  -0.000029  -0.003541
     3  C   -0.000005  -0.000099   0.003256  -0.000270   0.000059   0.001323
     4  C    0.000000   0.000004  -0.019944   0.006104   0.001106   0.005119
     5  C    0.006307   0.014566  -0.000007   0.000001  -0.000000  -0.000096
     6  S    0.000000   0.000000   0.004698   0.002228  -0.000866  -0.002972
     7  C    0.000000   0.000000  -0.175676   0.060088   0.001202   0.013867
     8  C    0.000000   0.000000   0.012488   0.024126   0.082987   0.023152
     9  N    0.000000  -0.000000  -0.001218   0.000932  -0.001345  -0.019850
    10  S   -0.003009  -0.002079   0.000000  -0.000000   0.000000   0.000006
    11  C    0.023547   0.023767  -0.000000   0.000000  -0.000000  -0.000000
    12  C    0.073787   0.022047  -0.000000   0.000000  -0.000000   0.000001
    13  N   -0.001728  -0.018454  -0.000000   0.000000   0.000000  -0.000000
    14  C   -0.049920  -0.023831  -0.000000   0.000000  -0.000000  -0.000000
    15  C    0.055155  -0.004113   0.000000  -0.000000   0.000000  -0.000000
    16  C    0.302818  -0.019026  -0.000000   0.000000  -0.000000   0.000000
    17  C   -0.080595   0.323910   0.000000  -0.000000   0.000000   0.000000
    18  C    0.000000  -0.000000   0.450647  -0.064425  -0.013987  -0.011246
    19  C    0.000000   0.000000   0.053884   0.329547   0.016235  -0.002866
    20  C   -0.000000   0.000000  -0.026591   0.022861   0.343543  -0.041586
    21  C   -0.000000   0.000000   0.027638  -0.052440  -0.102810   0.341980
    22  C    0.000455   0.006285   0.000000   0.000000   0.000000   0.000000
    23  C    0.000120   0.002472  -0.000000   0.000000   0.000000  -0.000000
    24  C   -0.000000   0.000000   0.000495  -0.000117   0.000644   0.015519
    25  C   -0.000000  -0.000000   0.000044   0.000018   0.000477   0.000675
    26  H    0.000000  -0.000009  -0.000000   0.000000   0.000000  -0.000000
    27  H    0.000000   0.000000  -0.000000   0.000000   0.000000  -0.000016
    28  H    0.000000  -0.000000   0.000002  -0.000000   0.000000   0.000000
    29  H   -0.000233   0.000050   0.000000  -0.000000  -0.000000  -0.000000
    30  H   -0.005119  -0.000230  -0.000000   0.000000  -0.000000   0.000000
    31  H    0.413592  -0.003986   0.000000  -0.000000   0.000000   0.000000
    32  H   -0.003986   0.404121   0.000000   0.000000  -0.000000  -0.000000
    33  H    0.000000   0.000000   0.396195  -0.004319  -0.000217   0.000046
    34  H   -0.000000   0.000000  -0.004319   0.411536  -0.004889  -0.000246
    35  H    0.000000  -0.000000  -0.000217  -0.004889   0.412388  -0.003809
    36  H    0.000000  -0.000000   0.000046  -0.000246  -0.003809   0.401257
    37  H   -0.000001   0.000256   0.000000  -0.000000   0.000000  -0.000000
    38  H    0.000038   0.001063  -0.000000  -0.000000   0.000000   0.000000
    39  H   -0.000000   0.000100   0.000000  -0.000000  -0.000000   0.000000
    40  H   -0.000004  -0.000641   0.000000  -0.000000  -0.000000  -0.000000
    41  H    0.000000  -0.000005   0.000000  -0.000000   0.000000   0.000000
    42  H   -0.000000   0.000000  -0.000001  -0.000000  -0.000001   0.000284
    43  H   -0.000000  -0.000000   0.000001   0.000001   0.000034   0.000033
    44  H   -0.000000   0.000000  -0.000000   0.000000  -0.000000   0.000091
    45  H    0.000000  -0.000000   0.000000   0.000000  -0.000000   0.000051
    46  H    0.000000  -0.000000   0.000000  -0.000000  -0.000000  -0.001180
              37         38         39         40         41         42
     1  C    0.023690   0.032788  -0.012696   0.010215   0.009333  -0.034600
     2  C   -0.014116   0.014706   0.002209  -0.001440  -0.017523  -0.044751
     3  C   -0.004269   0.006889  -0.000020   0.001614   0.004330   0.069720
     4  C    0.000839   0.000087   0.000482  -0.000164  -0.001102   0.086241
     5  C   -0.001995  -0.075001   0.036789  -0.044878  -0.028531  -0.033810
     6  S    0.000076   0.000011   0.000016  -0.000000  -0.000033   0.004097
     7  C    0.000017   0.000001   0.000003  -0.000001  -0.000011  -0.022763
     8  C    0.000028  -0.000001   0.000002  -0.000001  -0.000013  -0.012817
     9  N    0.000003   0.000001   0.000000   0.000000  -0.000004  -0.093927
    10  S    0.002615   0.002083   0.000758   0.002569   0.002816  -0.000205
    11  C   -0.011550  -0.052154  -0.006729   0.000110   0.013261  -0.000836
    12  C    0.012587   0.037648   0.005712  -0.001728   0.024468   0.001033
    13  N   -0.068721  -0.074387   0.019603  -0.025387  -0.029043  -0.000076
    14  C   -0.005683   0.009517  -0.002140   0.006109   0.002661   0.000205
    15  C   -0.000175  -0.002468   0.000314  -0.001456   0.000122  -0.000060
    16  C    0.007477   0.025791   0.001404   0.009486  -0.001854   0.000030
    17  C    0.007542   0.023330  -0.000356   0.013538  -0.008808   0.000130
    18  C    0.000002   0.000000   0.000000  -0.000000  -0.000001  -0.006028
    19  C    0.000000   0.000000   0.000000  -0.000000  -0.000000   0.000196
    20  C   -0.000000  -0.000000  -0.000000   0.000000   0.000000   0.011788
    21  C    0.000002  -0.000000   0.000000   0.000000  -0.000001   0.015970
    22  C    0.429580   0.432889  -0.105261   0.024696   0.038293   0.000152
    23  C   -0.036835  -0.046482   0.406944   0.365438   0.350967  -0.000031
    24  C    0.000198  -0.000005  -0.000001   0.000000  -0.000043   0.410073
    25  C   -0.000031   0.000004  -0.000001   0.000002   0.000006  -0.025116
    26  H   -0.001111   0.000608   0.000056   0.000087  -0.000361   0.000002
    27  H    0.000040   0.000002  -0.000001  -0.000000  -0.000005  -0.001040
    28  H    0.000075   0.000001  -0.000000  -0.000001  -0.000008  -0.000152
    29  H   -0.000001  -0.000000   0.000000  -0.000000  -0.000000  -0.000000
    30  H   -0.000000  -0.000000   0.000000   0.000000  -0.000000   0.000000
    31  H   -0.000001   0.000038  -0.000000  -0.000004   0.000000  -0.000000
    32  H    0.000256   0.001063   0.000100  -0.000641  -0.000005   0.000000
    33  H    0.000000  -0.000000   0.000000   0.000000   0.000000  -0.000001
    34  H   -0.000000  -0.000000  -0.000000  -0.000000  -0.000000  -0.000000
    35  H    0.000000   0.000000  -0.000000  -0.000000   0.000000  -0.000001
    36  H   -0.000000   0.000000   0.000000  -0.000000   0.000000   0.000284
    37  H    0.422277  -0.030408  -0.000469   0.004309  -0.007929  -0.000004
    38  H   -0.030408   0.423561  -0.000650  -0.006777   0.004582  -0.000000
    39  H   -0.000469  -0.000650   0.432071  -0.023090  -0.021580  -0.000000
    40  H    0.004309  -0.006777  -0.023090   0.428786  -0.031676   0.000000
    41  H   -0.007929   0.004582  -0.021580  -0.031676   0.426476   0.000000
    42  H   -0.000004  -0.000000  -0.000000   0.000000   0.000000   0.430121
    43  H   -0.000000  -0.000000  -0.000000   0.000000   0.000000  -0.024260
    44  H   -0.000000  -0.000000   0.000000  -0.000000   0.000000  -0.007513
    45  H   -0.000000  -0.000000   0.000000   0.000000   0.000000  -0.001886
    46  H   -0.000000   0.000000   0.000000   0.000000   0.000000   0.004844
              43         44         45         46
     1  C    0.012048   0.030495  -0.001501  -0.000635
     2  C    0.045858   0.052665   0.000721  -0.017660
     3  C   -0.025251  -0.054442   0.004177   0.004303
     4  C   -0.028155  -0.034491   0.009389   0.016555
     5  C    0.001367   0.006980  -0.002323  -0.001670
     6  S    0.002603   0.004297   0.000392   0.002363
     7  C   -0.009900  -0.002265  -0.002090  -0.002529
     8  C    0.026845   0.013155   0.025907  -0.039161
     9  N   -0.082790  -0.042231   0.023106  -0.025049
    10  S    0.001057   0.008541  -0.005040   0.001118
    11  C   -0.000000  -0.000476   0.000589   0.000045
    12  C   -0.000121  -0.000793   0.000259   0.000003
    13  N    0.000004   0.000008  -0.000040  -0.000000
    14  C    0.000028   0.000412  -0.000562   0.000020
    15  C    0.000002  -0.000003  -0.000071   0.000003
    16  C    0.000000   0.000011   0.000001  -0.000000
    17  C   -0.000007  -0.000071   0.000027   0.000002
    18  C   -0.005404   0.000208  -0.000734  -0.001644
    19  C    0.000116   0.000392  -0.000144   0.002260
    20  C    0.016163  -0.002076   0.001499   0.017994
    21  C   -0.008844  -0.009648  -0.009638   0.028556
    22  C    0.000015   0.000057   0.000017  -0.000002
    23  C   -0.000001  -0.000023  -0.000002  -0.000000
    24  C    0.433527   0.078086  -0.105640  -0.005572
    25  C   -0.046224   0.300610   0.410187   0.379176
    26  H    0.000002  -0.000003  -0.000000   0.000000
    27  H    0.001034  -0.000438  -0.002040   0.000855
    28  H    0.000016  -0.000088  -0.000002   0.000008
    29  H    0.000000  -0.000000   0.000000  -0.000000
    30  H    0.000000   0.000000   0.000000  -0.000000
    31  H   -0.000000  -0.000000   0.000000   0.000000
    32  H   -0.000000   0.000000  -0.000000  -0.000000
    33  H    0.000001  -0.000000   0.000000   0.000000
    34  H    0.000001   0.000000   0.000000  -0.000000
    35  H    0.000034  -0.000000  -0.000000  -0.000000
    36  H    0.000033   0.000091   0.000051  -0.001180
    37  H   -0.000000  -0.000000  -0.000000  -0.000000
    38  H   -0.000000  -0.000000  -0.000000   0.000000
    39  H   -0.000000   0.000000   0.000000   0.000000
    40  H    0.000000  -0.000000   0.000000   0.000000
    41  H    0.000000   0.000000   0.000000   0.000000
    42  H   -0.024260  -0.007513  -0.001886   0.004844
    43  H    0.412707   0.004418  -0.000613  -0.006987
    44  H    0.004418   0.434060  -0.019516  -0.030764
    45  H   -0.000613  -0.019516   0.422854  -0.023582
    46  H   -0.006987  -0.030764  -0.023582   0.423395
 Mulliken charges:
               1
     1  C   -0.474897
     2  C   -0.332465
     3  C   -0.437257
     4  C    0.514350
     5  C    0.178430
     6  S   -0.424906
     7  C    0.339761
     8  C    0.194652
     9  N    0.746027
    10  S   -0.697861
    11  C    0.803927
    12  C    0.128137
    13  N    0.676676
    14  C   -0.554086
    15  C   -0.083509
    16  C   -0.532791
    17  C   -0.380997
    18  C   -0.438833
    19  C   -0.431210
    20  C   -0.564261
    21  C   -0.276956
    22  C   -0.590376
    23  C   -0.717246
    24  C   -0.642979
    25  C   -0.744527
    26  H    0.280864
    27  H    0.271803
    28  H    0.270327
    29  H    0.274635
    30  H    0.267663
    31  H    0.269420
    32  H    0.277210
    33  H    0.279004
    34  H    0.269185
    35  H    0.269272
    36  H    0.284160
    37  H    0.271683
    38  H    0.272734
    39  H    0.266532
    40  H    0.270282
    41  H    0.271215
    42  H    0.274989
    43  H    0.280678
    44  H    0.270354
    45  H    0.276248
    46  H    0.274937
 Sum of Mulliken charges =   1.00000
 Mulliken charges with hydrogens summed into heavy atoms:
               1
     1  C   -0.194032
     2  C   -0.060662
     3  C   -0.166930
     4  C    0.514350
     5  C    0.178430
     6  S   -0.424906
     7  C    0.339761
     8  C    0.194652
     9  N    0.746027
    10  S   -0.697861
    11  C    0.803927
    12  C    0.128137
    13  N    0.676676
    14  C   -0.279451
    15  C    0.184154
    16  C   -0.263371
    17  C   -0.103788
    18  C   -0.159830
    19  C   -0.162025
    20  C   -0.294989
    21  C    0.007204
    22  C   -0.045959
    23  C    0.090784
    24  C   -0.087312
    25  C    0.077013
 Electronic spatial extent (au):  <R**2>=          15563.8667
 Charge=              1.0000 electrons
 Dipole moment (field-independent basis, Debye):
    X=              1.2142    Y=              0.3420    Z=              1.2740  Tot=              1.7929
 Quadrupole moment (field-independent basis, Debye-Ang):
   XX=            -54.2110   YY=           -126.5143   ZZ=           -167.8872
   XY=             15.6801   XZ=              1.6617   YZ=              0.9586
 Traceless Quadrupole moment (field-independent basis, Debye-Ang):
   XX=             61.9932   YY=            -10.3102   ZZ=            -51.6830
   XY=             15.6801   XZ=              1.6617   YZ=              0.9586
 Octapole moment (field-independent basis, Debye-Ang**2):
  XXX=              9.5712  YYY=             -1.9972  ZZZ=              4.1314  XYY=             27.8868
  XXY=              0.0857  XXZ=             -6.9089  XZZ=              2.1490  YZZ=              3.5799
  YYZ=              5.1866  XYZ=             30.1570
 Hexadecapole moment (field-independent basis, Debye-Ang**3):
 XXXX=         -13772.8685 YYYY=          -2346.5660 ZZZZ=           -336.7529 XXXY=            109.4122
 XXXZ=            161.9168 YYYX=             83.0965 YYYZ=             18.2348 ZZZX=             -0.1280
 ZZZY=             -2.8884 XXYY=          -2885.8663 XXZZ=          -3457.0547 YYZZ=           -505.9416
 XXYZ=             22.7468 YYXZ=            -11.6940 ZZXY=             36.0105
 N-N= 2.285648745017D+03 E-N=-8.581699023052D+03  KE= 1.713870299055D+03
 Unable to Open any file for archive entry.
 1\1\GINC-CN10\SP\RB3LYP TD-FC\6-311+G(d)\C21H21N2S2(1+)\2100011873\03-
 Nov-2023\0\\# td=(nstates=150) b3lyp/6-311+g* scrf(smd, solvent=ethano
 l)\\A-2\\1,1\C,0,1.185932,1.124188,0.259065\C,0,-0.064042,0.518894,0.1
 84736\C,0,-1.255062,1.232433,0.206071\C,0,-2.576908,0.775971,0.134368\
 C,0,2.392634,0.431471,0.171283\S,0,-3.827667,1.970009,-0.187075\C,0,-5
 .077877,0.744792,-0.134775\C,0,-4.509195,-0.50864,0.113846\N,0,-3.1183
 72,-0.458179,0.279721\S,0,2.505198,-1.300121,-0.125106\C,0,4.260315,-1
 .225762,-0.102553\C,0,4.688784,0.08701,0.119416\N,0,3.627512,0.981655,
 0.287411\C,0,5.159317,-2.267461,-0.279503\C,0,6.517913,-1.973596,-0.23
 7257\C,0,6.95394,-0.663841,-0.025333\C,0,6.051566,0.378213,0.153458\C,
 0,-6.446804,0.904176,-0.304215\C,0,-7.251229,-0.226106,-0.226408\C,0,-
 6.689747,-1.482485,0.014868\C,0,-5.320051,-1.640504,0.18625\C,0,3.8471
 44,2.415669,0.55458\C,0,3.911762,3.249637,-0.717632\C,0,-2.369369,-1.6
 60308,0.692423\C,0,-1.918854,-2.522991,-0.47911\H,0,1.228852,2.199196,
 0.376562\H,0,-0.096636,-0.556945,0.072235\H,0,-1.165193,2.31437,0.2241
 99\H,0,4.813961,-3.279951,-0.448352\H,0,7.240415,-2.768718,-0.37396\H,
 0,8.015538,-0.449707,-0.002068\H,0,6.406822,1.388085,0.306065\H,0,-6.8
 75736,1.880738,-0.491225\H,0,-8.32188,-0.129159,-0.357431\H,0,-7.33032
 6,-2.354283,0.06736\H,0,-4.901973,-2.621689,0.363736\H,0,3.048585,2.75
 4296,1.212168\H,0,4.77271,2.494849,1.122044\H,0,4.082538,4.295496,-0.4
 52515\H,0,4.728911,2.924468,-1.364544\H,0,2.978199,3.187215,-1.279982\
 H,0,-1.531667,-1.329317,1.302601\H,0,-3.027666,-2.224702,1.351768\H,0,
 -1.2761,-1.972556,-1.168349\H,0,-1.359149,-3.379171,-0.096017\H,0,-2.7
 75672,-2.899604,-1.040801\\Version=ES64L-G16RevC.02\State=1-A\HF=-1718
 .8974436\RMSD=5.397e-09\PG=C01 [X(C21H21N2S2)]\\@
 The archive entry for this job was punched.


 WHEN IT COMES TO CASH FLOW, IT SEEMS LIKE THE TIDE IS ALWAYS GOING OUT.
 Job cpu time:       1 days 10 hours 24 minutes 41.4 seconds.
 Elapsed time:       0 days  1 hours  7 minutes 26.4 seconds.
 File lengths (MBytes):  RWF=  22240 Int=      0 D2E=      0 Chk=   1792 Scr=     32
 Normal termination of Gaussian 16 at Fri Nov  3 13:13:49 2023.
