 Entering Gaussian System, Link 0=g16
 Initial command:
 /nfs-share/home/2100011873/Gaussian16_AVX2/g16/l1.exe "/nfs-share/home/2100011873/GaussTmp/Gau-143505.inp" -scrdir="/nfs-share/home/2100011873/GaussTmp/"
 Entering Link 1 = /nfs-share/home/2100011873/Gaussian16_AVX2/g16/l1.exe PID=    143506.
  
 Copyright (c) 1988-2021, Gaussian, Inc.  All Rights Reserved.
  
 This is part of the Gaussian(R) 16 program.  It is based on
 the Gaussian(R) 09 system (copyright 2009, Gaussian, Inc.),
 the Gaussian(R) 03 system (copyright 2003, Gaussian, Inc.),
 the Gaussian(R) 98 system (copyright 1998, Gaussian, Inc.),
 the Gaussian(R) 94 system (copyright 1995, Gaussian, Inc.),
 the Gaussian 92(TM) system (copyright 1992, Gaussian, Inc.),
 the Gaussian 90(TM) system (copyright 1990, Gaussian, Inc.),
 the Gaussian 88(TM) system (copyright 1988, Gaussian, Inc.),
 the Gaussian 86(TM) system (copyright 1986, Carnegie Mellon
 University), and the Gaussian 82(TM) system (copyright 1983,
 Carnegie Mellon University). Gaussian is a federally registered
 trademark of Gaussian, Inc.
  
 This software contains proprietary and confidential information,
 including trade secrets, belonging to Gaussian, Inc.
  
 This software is provided under written license and may be
 used, copied, transmitted, or stored only in accord with that
 written license.
  
 The following legend is applicable only to US Government
 contracts under FAR:
  
                    RESTRICTED RIGHTS LEGEND
  
 Use, reproduction and disclosure by the US Government is
 subject to restrictions as set forth in subparagraphs (a)
 and (c) of the Commercial Computer Software - Restricted
 Rights clause in FAR 52.227-19.
  
 Gaussian, Inc.
 340 Quinnipiac St., Bldg. 40, Wallingford CT 06492
  
  
 ---------------------------------------------------------------
 Warning -- This program may not be used in any manner that
 competes with the business of Gaussian, Inc. or will provide
 assistance to any competitor of Gaussian, Inc.  The licensee
 of this program is prohibited from giving any competitor of
 Gaussian, Inc. access to this program.  By using this program,
 the user acknowledges that Gaussian, Inc. is engaged in the
 business of creating and licensing software in the field of
 computational chemistry and represents and warrants to the
 licensee that it is not a competitor of Gaussian, Inc. and that
 it will not use this program in any manner prohibited above.
 ---------------------------------------------------------------
  

 Cite this work as:
 Gaussian 16, Revision C.02,
 M. J. Frisch, G. W. Trucks, H. B. Schlegel, G. E. Scuseria, 
 M. A. Robb, J. R. Cheeseman, G. Scalmani, V. Barone, 
 G. A. Petersson, H. Nakatsuji, X. Li, M. Caricato, A. V. Marenich, 
 J. Bloino, B. G. Janesko, R. Gomperts, B. Mennucci, H. P. Hratchian, 
 J. V. Ortiz, A. F. Izmaylov, J. L. Sonnenberg, D. Williams-Young, 
 F. Ding, F. Lipparini, F. Egidi, J. Goings, B. Peng, A. Petrone, 
 T. Henderson, D. Ranasinghe, V. G. Zakrzewski, J. Gao, N. Rega, 
 G. Zheng, W. Liang, M. Hada, M. Ehara, K. Toyota, R. Fukuda, 
 J. Hasegawa, M. Ishida, T. Nakajima, Y. Honda, O. Kitao, H. Nakai, 
 T. Vreven, K. Throssell, J. A. Montgomery, Jr., J. E. Peralta, 
 F. Ogliaro, M. J. Bearpark, J. J. Heyd, E. N. Brothers, K. N. Kudin, 
 V. N. Staroverov, T. A. Keith, R. Kobayashi, J. Normand, 
 K. Raghavachari, A. P. Rendell, J. C. Burant, S. S. Iyengar, 
 J. Tomasi, M. Cossi, J. M. Millam, M. Klene, C. Adamo, R. Cammi, 
 J. W. Ochterski, R. L. Martin, K. Morokuma, O. Farkas, 
 J. B. Foresman, and D. J. Fox, Gaussian, Inc., Wallingford CT, 2019.
 
 ******************************************
 Gaussian 16:  ES64L-G16RevC.02  7-Dec-2021
                 3-Nov-2023 
 ******************************************
 %nprocshared=32
 Will use up to   32 processors via shared memory.
 %mem=128GB
 -----------------------------------------------------------
 # td=(nstates=50) b3lyp/6-311+g* scrf(smd, solvent=ethanol)
 -----------------------------------------------------------
 1/38=1,172=1/1;
 2/12=2,17=6,18=5,40=1/2;
 3/5=4,6=6,7=11,11=9,25=1,30=1,70=32201,72=4,74=-5/1,2,3,8;
 4//1;
 5/5=2,38=5,53=4/2;
 8/6=1,10=2,108=50/1;
 9/41=50,42=1,70=2/14;
 6/7=2,8=2,9=2,10=2/1;
 99/5=1,9=1/99;
 ---
 B-2
 ---
 Symbolic Z-matrix:
 Charge =  0 Multiplicity = 1
 C                     4.18604  -0.98524  -0.00011 
 C                     2.96568  -0.09996   0.00002 
 C                     1.72426  -0.63647  -0.00021 
 C                     0.45258   0.05967  -0.00018 
 C                    -0.74108  -0.57941  -0.00021 
 C                    -2.06437   0.04042  -0.00014 
 C                    -3.15288  -0.76323   0.00025 
 C                    -4.60417  -0.38585   0.00043 
 C                     3.26039   1.37827   0.00057 
 C                    -2.13318   1.55026  -0.00054 
 H                     4.81718  -0.79122  -0.87967 
 H                     4.8171   -0.79165   0.8796 
 H                     3.9221   -2.04745  -0.00037 
 H                     1.65238  -1.72528  -0.00049 
 H                     0.46913   1.14647  -0.00011 
 H                    -0.73542  -1.67054  -0.0003 
 H                    -2.96813  -1.83864   0.00044 
 H                    -4.77347   0.69375   0.00148 
 H                    -5.11489  -0.80271  -0.87923 
 H                    -5.11504  -0.80447   0.87914 
 H                     2.363     2.00076   0.00008 
 H                     3.85901   1.65372   0.88055 
 H                     3.86032   1.65418  -0.87836 
 H                    -1.62727   1.96404  -0.8821 
 H                    -3.15869   1.92368  -0.00045 
 H                    -1.62693   1.9646    0.88057 
 
                          Input orientation:                          
 ---------------------------------------------------------------------
 Center     Atomic      Atomic             Coordinates (Angstroms)
 Number     Number       Type             X           Y           Z
 ---------------------------------------------------------------------
      1          6           0        4.186043   -0.985243   -0.000113
      2          6           0        2.965678   -0.099955    0.000017
      3          6           0        1.724259   -0.636470   -0.000213
      4          6           0        0.452578    0.059668   -0.000179
      5          6           0       -0.741079   -0.579413   -0.000205
      6          6           0       -2.064372    0.040415   -0.000137
      7          6           0       -3.152878   -0.763225    0.000253
      8          6           0       -4.604173   -0.385851    0.000427
      9          6           0        3.260391    1.378273    0.000567
     10          6           0       -2.133175    1.550261   -0.000541
     11          1           0        4.817179   -0.791217   -0.879673
     12          1           0        4.817098   -0.791647    0.879598
     13          1           0        3.922096   -2.047445   -0.000374
     14          1           0        1.652379   -1.725280   -0.000493
     15          1           0        0.469127    1.146468   -0.000113
     16          1           0       -0.735417   -1.670538   -0.000304
     17          1           0       -2.968126   -1.838635    0.000440
     18          1           0       -4.773466    0.693748    0.001475
     19          1           0       -5.114894   -0.802710   -0.879231
     20          1           0       -5.115042   -0.804470    0.879137
     21          1           0        2.363003    2.000757    0.000075
     22          1           0        3.859006    1.653716    0.880554
     23          1           0        3.860320    1.654180   -0.878355
     24          1           0       -1.627265    1.964044   -0.882102
     25          1           0       -3.158688    1.923675   -0.000452
     26          1           0       -1.626926    1.964596    0.880567
 ---------------------------------------------------------------------
                    Distance matrix (angstroms):
                    1          2          3          4          5
     1  C    0.000000
     2  C    1.507656   0.000000
     3  C    2.486367   1.352394   0.000000
     4  C    3.876932   2.518164   1.449752   0.000000
     5  C    4.943807   3.737637   2.465998   1.353973   0.000000
     6  C    6.334008   5.032008   3.848623   2.517024   1.461264
     7  C    7.342278   6.154401   4.878784   3.698171   2.418793
     8  C    8.810628   7.575248   6.333393   5.076339   3.867940
     9  C    2.538314   1.507320   2.533553   3.102021   4.454694
    10  C    6.808913   5.359246   4.434139   2.984625   2.544296
    11  H    1.099820   2.163274   3.219247   4.532908   5.631390
    12  H    1.099819   2.163298   3.219286   4.532966   5.631379
    13  H    1.094505   2.169667   2.611769   4.059246   4.888795
    14  H    2.639528   2.089602   1.091180   2.150712   2.653611
    15  H    4.284817   2.790401   2.180418   1.086926   2.107905
    16  H    4.968943   4.020552   2.668202   2.098796   1.091140
    17  H    7.204888   6.183287   4.843932   3.912131   2.558394
    18  H    9.115471   7.779738   6.632489   5.264370   4.228603
    19  H    9.344174   8.158590   6.897414   5.702032   4.466856
    20  H    9.344300   8.158874   6.897646   5.702484   4.467152
    21  H    3.498524   2.185454   2.713478   2.723518   4.036410
    22  H    2.801184   2.156094   3.252360   3.862697   5.188775
    23  H    2.800707   2.156133   3.252840   3.863466   5.189697
    24  H    6.578050   5.112079   4.332795   2.954688   2.834121
    25  H    7.899802   6.450034   5.513394   4.063959   3.479983
    26  H    6.577823   5.111727   4.332639   2.954454   2.834161
                    6          7          8          9         10
     6  C    0.000000
     7  C    1.353027   0.000000
     8  C    2.575324   1.499556   0.000000
     9  C    5.490261   6.761363   8.059994   0.000000
    10  C    1.511413   2.528243   3.139166   5.396308   0.000000
    11  H    6.987198   8.018532   9.471049   2.811601   7.386665
    12  H    6.987195   8.018390   9.470901   2.811509   7.386845
    13  H    6.340107   7.190583   8.686666   3.489040   7.043422
    14  H    4.114841   4.900617   6.398321   3.495389   5.005955
    15  H    2.764411   4.094612   5.299658   2.800873   2.633444
    16  H    2.166444   2.582118   4.076481   5.026105   3.511022
    17  H    2.085090   1.091165   2.187974   7.010201   3.490238
    18  H    2.786761   2.179238   1.092792   8.062967   2.775744
    19  H    3.284715   2.150479   1.099275   8.699203   3.898617
    20  H    3.285352   2.150401   1.099254   8.699663   3.900016
    21  H    4.841961   6.169647   7.364607   1.092150   4.518690
    22  H    6.201997   7.468805   8.749849   1.099357   6.057497
    23  H    6.203022   7.469990   8.751093   1.099338   6.058328
    24  H    2.160850   3.247159   3.893950   5.001141   1.097411
    25  H    2.178117   2.686906   2.724580   6.442208   1.091382
    26  H    2.160896   3.247228   3.894001   5.000404   1.097412
                   11         12         13         14         15
    11  H    0.000000
    12  H    1.759271   0.000000
    13  H    1.775514   1.775502   0.000000
    14  H    3.414878   3.414920   2.292467   0.000000
    15  H    4.840848   4.840974   4.703624   3.105966   0.000000
    16  H    5.690151   5.690088   4.672739   2.388423   3.063731
    17  H    7.904597   7.904354   6.893385   4.621895   4.552532
    18  H    9.744846   9.744558   9.117398   6.866089   5.262104
    19  H    9.932080  10.086529   9.164548   6.886167   5.979418
    20  H   10.086754   9.932148   9.164518   6.886191   5.980149
    21  H    3.819955   3.820165   4.338054   3.793196   2.077637
    22  H    3.161359   2.626355   3.805077   4.130746   3.538948
    23  H    2.625937   3.160363   3.804825   4.131149   3.539671
    24  H    7.008732   7.226841   6.903977   5.014420   2.416856
    25  H    8.471017   8.471164   8.118331   6.038314   3.710134
    26  H    7.226302   7.008732   6.903925   5.014508   2.416272
                   16         17         18         19         20
    16  H    0.000000
    17  H    2.239028   0.000000
    18  H    4.679283   3.110019   0.000000
    19  H    4.550325   2.540782   1.769633   0.000000
    20  H    4.550231   2.539853   1.769639   1.758369   0.000000
    21  H    4.804021   6.569769   7.255168   8.034398   8.035123
    22  H    5.738928   7.718863   8.730057   9.468989   9.304634
    23  H    5.739819   7.720085   8.731483   9.305416   9.470526
    24  H    3.844886   4.127609   3.506129   4.451796   4.788655
    25  H    4.334814   3.767133   2.029835   3.468742   3.470414
    26  H    3.845117   4.127712   3.505506   4.787566   4.453614
                   21         22         23         24         25
    21  H    0.000000
    22  H    1.770228   0.000000
    23  H    1.770230   1.758910   0.000000
    24  H    4.086786   5.770826   5.496328   0.000000
    25  H    5.522229   7.077929   7.078829   1.767539   0.000000
    26  H    4.086087   5.494734   5.770618   1.762669   1.767530
                   26
    26  H    0.000000
 Stoichiometry    C10H16
 Framework group  C1[X(C10H16)]
 Deg. of freedom    72
 Full point group                 C1      NOp   1
 Largest Abelian subgroup         C1      NOp   1
 Largest concise Abelian subgroup C1      NOp   1
                         Standard orientation:                         
 ---------------------------------------------------------------------
 Center     Atomic      Atomic             Coordinates (Angstroms)
 Number     Number       Type             X           Y           Z
 ---------------------------------------------------------------------
      1          6           0        4.186043   -0.985243   -0.000113
      2          6           0        2.965678   -0.099955    0.000017
      3          6           0        1.724259   -0.636470   -0.000213
      4          6           0        0.452578    0.059668   -0.000179
      5          6           0       -0.741079   -0.579413   -0.000205
      6          6           0       -2.064372    0.040415   -0.000137
      7          6           0       -3.152878   -0.763225    0.000253
      8          6           0       -4.604173   -0.385851    0.000427
      9          6           0        3.260391    1.378273    0.000567
     10          6           0       -2.133175    1.550261   -0.000541
     11          1           0        4.817179   -0.791217   -0.879673
     12          1           0        4.817098   -0.791647    0.879598
     13          1           0        3.922096   -2.047445   -0.000374
     14          1           0        1.652379   -1.725280   -0.000493
     15          1           0        0.469127    1.146468   -0.000113
     16          1           0       -0.735417   -1.670538   -0.000304
     17          1           0       -2.968126   -1.838635    0.000440
     18          1           0       -4.773466    0.693748    0.001475
     19          1           0       -5.114894   -0.802710   -0.879231
     20          1           0       -5.115042   -0.804470    0.879137
     21          1           0        2.363003    2.000757    0.000075
     22          1           0        3.859006    1.653716    0.880554
     23          1           0        3.860320    1.654180   -0.878355
     24          1           0       -1.627265    1.964044   -0.882102
     25          1           0       -3.158688    1.923675   -0.000452
     26          1           0       -1.626926    1.964596    0.880567
 ---------------------------------------------------------------------
 Rotational constants (GHZ):           4.0045797           0.4300443           0.3921027
 Standard basis: 6-311+G(d) (5D, 7F)
 There are   278 symmetry adapted cartesian basis functions of A   symmetry.
 There are   268 symmetry adapted basis functions of A   symmetry.
   268 basis functions,   440 primitive gaussians,   278 cartesian basis functions
    38 alpha electrons       38 beta electrons
       nuclear repulsion energy       478.6004483981 Hartrees.
 NAtoms=   26 NActive=   26 NUniq=   26 SFac= 1.00D+00 NAtFMM=   60 NAOKFM=F Big=F
 Integral buffers will be    131072 words long.
 Regular integral format.
 Two-electron integral symmetry is turned on.
 ------------------------------------------------------------------------------
 Polarizable Continuum Model (PCM)
 =================================
 Model                : PCM.
 Atomic radii         : SMD-Coulomb.
 Polarization charges : Total charges.
 Charge compensation  : None.
 Solution method      : On-the-fly selection.
 Cavity type          : VdW (van der Waals Surface) (Alpha=1.000).
 Cavity algorithm     : GePol (No added spheres)
                        Default sphere list used, NSphG=   26.
                        Lebedev-Laikov grids with approx.  5.0 points / Ang**2.
                        Smoothing algorithm: York/Karplus (Gamma=1.0000).
                        Polarization charges: spherical gaussians, with
                                              point-specific exponents (IZeta= 3).
                        Self-potential: point-specific (ISelfS= 7).
                        Self-field    : sphere-specific E.n sum rule (ISelfD= 2).
 Solvent              : Ethanol, Eps=  24.852000 Eps(inf)=   1.852593
 ------------------------------------------------------------------------------
 ------------------------------------------------------------------------------
 Atomic radii for non-electrostatic terms: SMD-CDS.
 ------------------------------------------------------------------------------
 Nuclear repulsion after PCM non-electrostatic terms =      478.5987318692 Hartrees.
 One-electron integrals computed using PRISM.
 NBasis=   268 RedAO= T EigKep=  1.06D-06  NBF=   268
 NBsUse=   267 1.00D-06 EigRej=  5.81D-07 NBFU=   267
 ExpMin= 4.38D-02 ExpMax= 4.56D+03 ExpMxC= 6.82D+02 IAcc=3 IRadAn=         5 AccDes= 0.00D+00
 Harris functional with IExCor=  402 and IRadAn=       5 diagonalized for initial guess.
 HarFok:  IExCor=  402 AccDes= 0.00D+00 IRadAn=         5 IDoV= 1 UseB2=F ITyADJ=14
 ICtDFT=  3500011 ScaDFX=  1.000000  1.000000  1.000000  1.000000
 FoFCou: FMM=F IPFlag=           0 FMFlag=      100000 FMFlg1=           0
         NFxFlg=           0 DoJE=T BraDBF=F KetDBF=T FulRan=T
         wScrn=  0.000000 ICntrl=       500 IOpCl=  0 I1Cent=   200000004 NGrid=           0
         NMat0=    1 NMatS0=      1 NMatT0=    0 NMatD0=    1 NMtDS0=    0 NMtDT0=    0
 Petite list used in FoFCou.
 Requested convergence on RMS density matrix=1.00D-08 within 128 cycles.
 Requested convergence on MAX density matrix=1.00D-06.
 Requested convergence on             energy=1.00D-06.
 No special actions if energy rises.
 Inv3:  Mode=1 IEnd=    11116875.
 Iteration    1 A*A^-1 deviation from unit magnitude is 3.33D-15 for    228.
 Iteration    1 A*A^-1 deviation from orthogonality  is 2.41D-15 for   1524     52.
 Iteration    1 A^-1*A deviation from unit magnitude is 3.33D-15 for    228.
 Iteration    1 A^-1*A deviation from orthogonality  is 1.84D-15 for   1550    268.
 Error on total polarization charges =  0.06361
 SCF Done:  E(RB3LYP) =  -390.765269181     A.U. after   13 cycles
            NFock= 13  Conv=0.67D-08     -V/T= 2.0049
 SMD-CDS (non-electrostatic) energy       (kcal/mol) =      -1.08
 (included in total energy above)
 DoSCS=F DFT=T ScalE2(SS,OS)=  1.000000  1.000000
 ExpMin= 4.38D-02 ExpMax= 4.56D+03 ExpMxC= 6.82D+02 IAcc=3 IRadAn=         5 AccDes= 0.00D+00
 HarFok:  IExCor=  205 AccDes= 0.00D+00 IRadAn=         5 IDoV=-2 UseB2=F ITyADJ=14
 ICtDFT= 12500011 ScaDFX=  1.000000  1.000000  1.000000  1.000000
 Range of M.O.s used for correlation:    11   267
 NBasis=   268 NAE=    38 NBE=    38 NFC=    10 NFV=     0
 NROrb=    257 NOA=    28 NOB=    28 NVA=   229 NVB=   229

 **** Warning!!: The largest alpha MO coefficient is  0.20652842D+03

 Keep R1, R2, and R3 ints in memory in canonical form, NReq=4063965843.
 NEqPCM:  Using non-equilibrium solvation (IEInf=1, Eps=  24.8520, EpsInf=   1.8526)
 Inv3:  Mode=1 IEnd=    11116875.
 Iteration    1 A*A^-1 deviation from unit magnitude is 3.66D-15 for    120.
 Iteration    1 A*A^-1 deviation from orthogonality  is 2.07D-15 for   1342    412.
 Iteration    1 A^-1*A deviation from unit magnitude is 3.66D-15 for    120.
 Iteration    1 A^-1*A deviation from orthogonality  is 1.68D-15 for   1848    506.
 Orbital symmetries:
       Occupied  (A) (A) (A) (A) (A) (A) (A) (A) (A) (A) (A) (A)
                 (A) (A) (A) (A) (A) (A) (A) (A) (A) (A) (A) (A)
                 (A) (A) (A) (A) (A) (A) (A) (A) (A) (A) (A) (A)
                 (A) (A)
       Virtual   (A) (A) (A) (A) (A) (A) (A) (A) (A) (A) (A) (A)
                 (A) (A) (A) (A) (A) (A) (A) (A) (A) (A) (A) (A)
                 (A) (A) (A) (A) (A) (A) (A) (A) (A) (A) (A) (A)
                 (A) (A) (A) (A) (A) (A) (A) (A) (A) (A) (A) (A)
                 (A) (A) (A) (A) (A) (A) (A) (A) (A) (A) (A) (A)
                 (A) (A) (A) (A) (A) (A) (A) (A) (A) (A) (A) (A)
                 (A) (A) (A) (A) (A) (A) (A) (A) (A) (A) (A) (A)
                 (A) (A) (A) (A) (A) (A) (A) (A) (A) (A) (A) (A)
                 (A) (A) (A) (A) (A) (A) (A) (A) (A) (A) (A) (A)
                 (A) (A) (A) (A) (A) (A) (A) (A) (A) (A) (A) (A)
                 (A) (A) (A) (A) (A) (A) (A) (A) (A) (A) (A) (A)
                 (A) (A) (A) (A) (A) (A) (A) (A) (A) (A) (A) (A)
                 (A) (A) (A) (A) (A) (A) (A) (A) (A) (A) (A) (A)
                 (A) (A) (A) (A) (A) (A) (A) (A) (A) (A) (A) (A)
                 (A) (A) (A) (A) (A) (A) (A) (A) (A) (A) (A) (A)
                 (A) (A) (A) (A) (A) (A) (A) (A) (A) (A) (A) (A)
                 (A) (A) (A) (A) (A) (A) (A) (A) (A) (A) (A) (A)
                 (A) (A) (A) (A) (A) (A) (A) (A) (A) (A) (A) (A)
                 (A) (A) (A) (A) (A) (A) (A) (A) (A) (A) (A) (A)
                 (A)
   200 initial guesses have been made.
 Convergence on wavefunction:    0.001000000000000
 Iteration     1 Dimension   200 NMult     0 NNew    200
 CISAX will form   200 AO SS matrices at one time.
 New state      6 was old state      7
 New state      7 was old state      8
 New state      8 was old state      9
 New state      9 was old state     11
 New state     11 was old state     12
 New state     12 was old state     13
 New state     13 was old state     14
 New state     14 was old state     15
 New state     15 was old state     20
 New state     16 was old state     21
 New state     17 was old state     16
 New state     19 was old state     26
 New state     20 was old state     19
 New state     21 was old state     17
 New state     25 was old state     34
 New state     26 was old state     35
 New state     27 was old state     29
 New state     29 was old state     27
 New state     31 was old state     38
 New state     33 was old state     31
 New state     34 was old state     33
 New state     35 was old state     25
 New state     36 was old state     37
 New state     37 was old state     43
 New state     38 was old state     36
 New state     39 was old state     40
 New state     40 was old state     46
 New state     41 was old state     39
 New state     42 was old state     44
 New state     43 was old state     42
 New state     44 was old state     41
 New state     45 was old state     61
 New state     46 was old state     45
 New state     47 was old state     48
 New state     48 was old state     53
 New state     49 was old state     47
 Iteration     2 Dimension   300 NMult   200 NNew    100
 New state      6 was old state      7
 New state      7 was old state      6
 New state      9 was old state     11
 New state     10 was old state      9
 New state     11 was old state     10
 New state     14 was old state     15
 New state     15 was old state     14
 New state     19 was old state     21
 New state     20 was old state     19
 New state     21 was old state     20
 New state     22 was old state     23
 New state     23 was old state     22
 New state     25 was old state     26
 New state     26 was old state     25
 New state     27 was old state     29
 New state     28 was old state     27
 New state     29 was old state     28
 New state     31 was old state     35
 New state     32 was old state     31
 New state     33 was old state     32
 New state     34 was old state     33
 New state     35 was old state     34
 New state     38 was old state     39
 New state     39 was old state     38
 New state     42 was old state     45
 New state     43 was old state     42
 New state     45 was old state     43
 Iteration     3 Dimension   400 NMult   300 NNew    100
 Iteration     4 Dimension   456 NMult   400 NNew     56
 Iteration     5 Dimension   466 NMult   456 NNew     10
 Iteration     6 Dimension   468 NMult   466 NNew      2
 Iteration     7 Dimension   470 NMult   468 NNew      2
 Convergence on energies, max DE= 3.23D-06.
 ***********************************************************************
 Excited states from <AA,BB:AA,BB> singles matrix:
 ***********************************************************************
 
 Ground to excited state transition densities written to RWF  633
 Ground to excited state transition electric dipole moments (Au):
       state          X           Y           Z        Dip. S.      Osc.
         1        -3.6269     -0.5412     -0.0000     13.4470      1.3857
         2        -0.0005     -0.0001      0.1039      0.0108      0.0013
         3        -0.0000     -0.0000     -0.0753      0.0057      0.0007
         4         0.0002     -0.0000     -0.1453      0.0211      0.0028
         5        -0.3150     -0.0570     -0.0001      0.1025      0.0136
         6         0.2657     -0.1860     -0.0003      0.1052      0.0149
         7        -0.0027      0.0019     -0.0425      0.0018      0.0003
         8        -0.0003      0.0002     -0.0432      0.0019      0.0003
         9        -0.1733      0.1249     -0.0005      0.0456      0.0067
        10         0.0000      0.0001      0.0249      0.0006      0.0001
        11         0.0005     -0.0001      0.0208      0.0004      0.0001
        12        -0.2545      0.0220      0.0002      0.0653      0.0100
        13         0.0001     -0.0004     -0.0166      0.0003      0.0000
        14         0.0111     -0.1574      0.0000      0.0249      0.0039
        15         0.0001     -0.0003      0.0261      0.0007      0.0001
        16        -0.0001     -0.0000      0.0198      0.0004      0.0001
        17        -0.0002      0.0000      0.0136      0.0002      0.0000
        18        -0.0002     -0.0001      0.2533      0.0642      0.0110
        19         0.0938      0.0292      0.0002      0.0096      0.0017
        20        -0.0001     -0.0001      0.0218      0.0005      0.0001
        21         0.0001      0.0000     -0.0056      0.0000      0.0000
        22        -0.0831      0.0637      0.0011      0.0110      0.0019
        23        -0.0008      0.0003     -0.2298      0.0528      0.0093
        24         0.0002     -0.0005      0.0072      0.0001      0.0000
        25         0.1099      0.0003     -0.0007      0.0121      0.0022
        26        -0.0009     -0.0001      0.0410      0.0017      0.0003
        27         0.2439      0.1164     -0.0000      0.0730      0.0133
        28        -0.0003     -0.0003      0.0646      0.0042      0.0008
        29         0.0008      0.0002     -0.0698      0.0049      0.0009
        30         0.4864      0.3472      0.0002      0.3571      0.0666
        31         0.5367      0.8129     -0.0003      0.9488      0.1779
        32        -0.0012     -0.0014     -0.0402      0.0016      0.0003
        33         0.0000      0.0004     -0.1947      0.0379      0.0072
        34         0.0002      0.0006      0.1802      0.0325      0.0062
        35         0.0001      0.0000      0.0292      0.0009      0.0002
        36        -0.0001     -0.0003     -0.1488      0.0221      0.0043
        37         0.0002      0.0003      0.0386      0.0015      0.0003
        38        -0.1131     -0.0529     -0.0003      0.0156      0.0031
        39        -0.0000      0.0002     -0.2246      0.0504      0.0099
        40        -0.0001     -0.0000     -0.0386      0.0015      0.0003
        41         0.0003      0.0000     -0.1912      0.0365      0.0073
        42        -0.0489     -0.1537     -0.0006      0.0260      0.0052
        43         0.0001     -0.0002     -0.0275      0.0008      0.0002
        44        -0.3659     -0.2397      0.0009      0.1913      0.0386
        45         0.0010     -0.0001      0.3550      0.1260      0.0255
        46        -0.0002      0.0009      0.0071      0.0001      0.0000
        47        -0.1546      0.5251      0.0004      0.2996      0.0614
        48         0.0002      0.0001     -0.1923      0.0370      0.0076
        49        -0.0007      0.0000     -0.2297      0.0528      0.0109
        50         0.2162     -0.3829     -0.0008      0.1933      0.0403
 Ground to excited state transition velocity dipole moments (Au):
       state          X           Y           Z        Dip. S.      Osc.
         1         0.5471      0.0828      0.0000      0.3062      1.3207
         2         0.0001      0.0000     -0.0165      0.0003      0.0010
         3        -0.0000      0.0000      0.0123      0.0002      0.0005
         4        -0.0000      0.0000      0.0295      0.0009      0.0029
         5         0.0593      0.0137      0.0000      0.0037      0.0124
         6        -0.0518      0.0366      0.0000      0.0040      0.0127
         7         0.0005     -0.0004      0.0080      0.0001      0.0002
         8         0.0000     -0.0000      0.0065      0.0000      0.0001
         9         0.0374     -0.0230      0.0001      0.0019      0.0058
        10         0.0000     -0.0000     -0.0070      0.0000      0.0001
        11        -0.0001      0.0000     -0.0058      0.0000      0.0001
        12         0.0544     -0.0017     -0.0001      0.0030      0.0086
        13        -0.0000      0.0001      0.0038      0.0000      0.0000
        14        -0.0048      0.0376     -0.0000      0.0014      0.0040
        15        -0.0000      0.0001     -0.0056      0.0000      0.0001
        16         0.0000      0.0000     -0.0030      0.0000      0.0000
        17         0.0000     -0.0000     -0.0020      0.0000      0.0000
        18         0.0000      0.0000     -0.0698      0.0049      0.0126
        19        -0.0256     -0.0062     -0.0001      0.0007      0.0018
        20         0.0000      0.0000     -0.0070      0.0000      0.0001
        21        -0.0000     -0.0000      0.0018      0.0000      0.0000
        22         0.0206     -0.0148     -0.0003      0.0006      0.0016
        23         0.0002     -0.0001      0.0590      0.0035      0.0088
        24        -0.0001      0.0001     -0.0004      0.0000      0.0000
        25        -0.0266     -0.0072      0.0002      0.0008      0.0019
        26         0.0002      0.0000     -0.0140      0.0002      0.0005
        27        -0.0627     -0.0364     -0.0000      0.0053      0.0128
        28         0.0001      0.0001     -0.0151      0.0002      0.0005
        29        -0.0002     -0.0001      0.0217      0.0005      0.0011
        30        -0.1315     -0.0953     -0.0001      0.0264      0.0628
        31        -0.1465     -0.2239      0.0001      0.0716      0.1697
        32         0.0003      0.0004      0.0143      0.0002      0.0005
        33        -0.0000     -0.0001      0.0621      0.0039      0.0091
        34        -0.0000     -0.0002     -0.0511      0.0026      0.0061
        35        -0.0000     -0.0000     -0.0076      0.0001      0.0001
        36         0.0000      0.0001      0.0459      0.0021      0.0048
        37        -0.0001     -0.0001     -0.0126      0.0002      0.0004
        38         0.0359      0.0106      0.0001      0.0014      0.0032
        39         0.0000     -0.0001      0.0685      0.0047      0.0106
        40         0.0000      0.0000      0.0078      0.0001      0.0001
        41        -0.0001     -0.0000      0.0562      0.0032      0.0071
        42         0.0158      0.0459      0.0002      0.0024      0.0052
        43        -0.0000      0.0001      0.0070      0.0000      0.0001
        44         0.1041      0.0761     -0.0003      0.0166      0.0366
        45        -0.0003      0.0000     -0.1092      0.0119      0.0261
        46         0.0001     -0.0003     -0.0015      0.0000      0.0000
        47         0.0458     -0.1608     -0.0001      0.0280      0.0606
        48        -0.0001     -0.0000      0.0627      0.0039      0.0085
        49         0.0002      0.0000      0.0738      0.0055      0.0117
        50        -0.0626      0.1120      0.0003      0.0165      0.0351
 Ground to excited state transition magnetic dipole moments (Au):
       state          X           Y           Z
         1        -0.0000     -0.0004      0.3424
         2        -0.2318      0.0706      0.0000
         3        -0.0168     -0.1699      0.0000
         4         0.0900      0.0216     -0.0006
         5         0.0001      0.0001      0.2749
         6        -0.0007      0.0002     -0.2008
         7        -0.0770      0.0421      0.0019
         8         0.0471     -0.0689      0.0003
         9        -0.0001      0.0001      0.7134
        10         0.1857     -0.2470      0.0006
        11         0.0993      0.3712      0.0000
        12        -0.0001      0.0010     -0.0472
        13         0.0048     -0.4439     -0.0009
        14        -0.0001      0.0015     -0.3879
        15         0.0313      0.1389     -0.0006
        16         0.2319      0.2936      0.0001
        17        -0.2911     -0.0886      0.0001
        18         0.2343     -0.0864      0.0002
        19        -0.0000     -0.0005     -0.1608
        20         0.0450      0.0906     -0.0003
        21        -0.2106      0.0771     -0.0004
        22        -0.0001     -0.0010      0.3128
        23        -0.0090      0.2317      0.0011
        24         0.0711      0.1752     -0.0001
        25        -0.0002     -0.0005      0.4070
        26        -0.2776      0.6765     -0.0006
        27        -0.0015      0.0035      0.1628
        28         0.0529      0.2665     -0.0004
        29        -0.0554      0.7854     -0.0016
        30         0.0006     -0.0018     -0.4609
        31         0.0019      0.0004      0.4617
        32         1.2457      0.0046     -0.0007
        33        -0.3059      0.3952     -0.0004
        34        -0.2621      0.3694      0.0010
        35         0.0204      0.5767     -0.0003
        36        -0.0688     -0.1888     -0.0002
        37         0.3307     -0.4390      0.0000
        38         0.0005      0.0003      0.1554
        39        -0.4243     -0.2488      0.0002
        40        -0.2647     -0.1461     -0.0003
        41         0.2725     -0.0515     -0.0001
        42        -0.0005      0.0005     -0.4998
        43        -0.0012     -0.3525     -0.0006
        44         0.0009      0.0002     -0.1216
        45         0.3964      0.0078      0.0002
        46        -0.1921     -0.1797     -0.0009
        47         0.0009      0.0007     -0.4569
        48        -0.0201      0.2140      0.0010
        49        -0.2632      0.2869     -0.0002
        50        -0.0007     -0.0021      0.4978
 Ground to excited state transition velocity quadrupole moments (Au):
       state          XX          YY          ZZ          XY          XZ          YZ
         1        -0.0721      0.0190      0.0218     -0.3907      0.0002      0.0001
         2        -0.0000     -0.0001      0.0000     -0.0002     -0.0841     -0.1496
         3         0.0002     -0.0001      0.0002     -0.0001      0.1967      0.0344
         4         0.0001     -0.0001      0.0000     -0.0002      0.0221      0.1010
         5        -0.4129     -0.0020      0.0153      0.0213     -0.0000      0.0001
         6        -0.5523      0.0879      0.0372     -0.0764      0.0003     -0.0008
         7         0.0050     -0.0008     -0.0003      0.0007     -0.0015     -0.0871
         8         0.0004     -0.0001      0.0001      0.0002      0.1638      0.0498
         9         3.5828      0.0144     -0.0228      0.7449     -0.0001      0.0001
        10         0.0014      0.0000     -0.0002      0.0005      0.1565      0.0130
        11        -0.0002      0.0000      0.0003      0.0002     -0.3934      0.0598
        12        -0.7277     -0.1359     -0.1755     -0.2568     -0.0009     -0.0000
        13        -0.0059     -0.0002     -0.0000     -0.0012      0.4544      0.0633
        14        -2.2655     -0.0025      0.0328     -0.3815     -0.0013     -0.0001
        15        -0.0029     -0.0000      0.0003     -0.0004     -0.1894     -0.0232
        16         0.0011      0.0000     -0.0000      0.0001     -0.1146      0.0531
        17        -0.0004     -0.0003      0.0002     -0.0001      0.0557     -0.1728
        18        -0.0003      0.0001      0.0002      0.0004      0.0886      0.1967
        19         0.1354      0.0384     -0.1053     -0.1708      0.0004      0.0003
        20        -0.0004      0.0002     -0.0001     -0.0002      0.0048      0.0089
        21        -0.0005     -0.0001     -0.0001     -0.0002     -0.0654     -0.1121
        22         0.2411      0.0458     -0.0015      0.1421      0.0006     -0.0004
        23        -0.0003      0.0003     -0.0001      0.0001     -0.1651      0.0643
        24         0.0020      0.0004     -0.0000      0.0005     -0.1518      0.0541
        25         1.4557      0.0217      0.0232      0.5010      0.0001      0.0001
        26         0.0001     -0.0012     -0.0004     -0.0008     -0.3976     -0.1000
        27        -0.0360      0.2550      0.0943      0.2509     -0.0017     -0.0004
        28         0.0020     -0.0001     -0.0001     -0.0002      0.0260     -0.0158
        29        -0.0002      0.0001     -0.0000     -0.0012     -0.6578     -0.1537
        30         0.0417     -0.1192     -0.0083     -0.2600      0.0014      0.0003
        31        -0.0694     -0.4461      0.0449      0.4672     -0.0005      0.0003
        32        -0.0002      0.0006     -0.0000     -0.0010      0.1256      0.1818
        33         0.0015     -0.0007      0.0000     -0.0004     -0.1483     -0.1040
        34        -0.0001     -0.0003      0.0001      0.0009     -0.2425     -0.1520
        35         0.0001     -0.0001     -0.0002      0.0000     -0.0861     -0.1193
        36         0.0003      0.0001      0.0002     -0.0002      0.0163     -0.0498
        37         0.0001     -0.0001     -0.0000      0.0001      0.3850      0.1175
        38        -1.8379      0.1190     -0.0903      0.1566      0.0003      0.0002
        39         0.0016      0.0000     -0.0001      0.0002      0.1614     -0.3884
        40        -0.0000     -0.0000      0.0001      0.0001      0.2017     -0.0537
        41         0.0004     -0.0000      0.0002      0.0002      0.0166     -0.0131
        42        -1.2954      0.0482     -0.1751     -0.6564      0.0000     -0.0003
        43        -0.0015      0.0001     -0.0001     -0.0006     -0.0090     -0.0132
        44        -0.7931      0.0054      0.1251     -0.1310     -0.0006      0.0004
        45         0.0014     -0.0001     -0.0004      0.0001     -0.0704      0.2542
        46         0.0009      0.0002     -0.0000     -0.0006     -0.0259     -0.1699
        47         0.5742      0.0722      0.0324     -0.1608     -0.0004      0.0007
        48        -0.0003      0.0002     -0.0000      0.0011     -0.1597     -0.0115
        49        -0.0001     -0.0001     -0.0000     -0.0003     -0.1014      0.0025
        50        -0.4588      0.3159      0.1226      0.7666      0.0007     -0.0003
 <0|del|b> * <b|rxdel|0> + <0|del|b> * <b|delr+rdel|0>
 Rotatory Strengths (R) in cgs (10**-40 erg-esu-cm/Gauss)
       state          XX          YY          ZZ    R(velocity)    E-M Angle
         1        -0.0993      0.1067     -0.2265     -0.0730       90.00
         2         0.0118     -0.0626     -0.0128     -0.0212       90.00
         3        -0.0128      0.0022      0.0009     -0.0032       90.00
         4        -0.0443     -0.0356      0.0012     -0.0262       90.00
         5         0.0210      0.0401      0.0036      0.0216       90.00
         6        -0.0286      0.1252      0.0193      0.0387       90.00
         7         0.0077     -0.1290     -0.0160     -0.0457       90.00
         8         0.0219      0.0089     -0.0072      0.0079       90.00
         9         0.2321     -0.0032     -0.0096      0.0731       90.00
        10         0.0068      0.0004      0.0052      0.0041       90.00
        11         0.0262     -0.0222     -0.0066     -0.0009       90.00
        12         0.0205     -0.0326     -0.0101     -0.0074       90.00
        13        -0.1271     -0.0013      0.0038     -0.0415       90.00
        14         0.1599      0.0014      0.0093      0.0569       90.00
        15         0.0494      0.0010     -0.0082      0.0140       90.00
        16         0.0027      0.0084      0.0067      0.0059       90.00
        17         0.0014     -0.0280     -0.0067     -0.0111       90.00
        18        -0.0601      0.0375      0.0020     -0.0069       90.00
        19         0.0335     -0.0107      0.0114      0.0114       90.00
        20         0.0072      0.0029      0.0037      0.0046       90.00
        21        -0.0025      0.0144      0.0045      0.0055       90.00
        22        -0.1339     -0.0744      0.0184     -0.0633       90.00
        23         0.0651      0.0969     -0.0253      0.0456       90.00
        24         0.0470     -0.0096      0.0020      0.0132       90.00
        25         0.2120     -0.0178      0.0154      0.0699       90.00
        26         0.0943     -0.1106     -0.0317     -0.0160       90.00
        27        -0.2476      0.1602      0.0037     -0.0279       90.00
        28         0.0314      0.0079      0.0310      0.0234       90.00
        29        -0.1749      0.0434     -0.0343     -0.0553       90.00
        30         0.4508     -0.1335     -0.0105      0.1023       89.91
        31        -0.1706     -0.4047     -0.2663     -0.2805       90.16
        32        -0.0912      0.5583      0.4785      0.3152       88.79
        33        -0.1245      0.0181     -0.0204     -0.0423       90.00
        34        -0.2410      0.0140     -0.0197     -0.0823       90.00
        35        -0.0029      0.0061     -0.0081     -0.0016       90.00
        36        -0.0451     -0.0041     -0.0159     -0.0217       90.00
        37         0.0849     -0.0311     -0.0093      0.0148       90.00
        38         0.0368      0.0311      0.0223      0.0300       90.00
        39         0.0589     -0.0060      0.0062      0.0197       90.00
        40        -0.0035     -0.0093     -0.0037     -0.0055       90.00
        41         0.0083     -0.0474     -0.0297     -0.0229       90.00
        42        -0.2132      0.0188      0.0261     -0.0561       90.00
        43        -0.0353      0.0002     -0.0269     -0.0207       90.00
        44         0.1465      0.1561      0.0256      0.1094       89.49
        45        -0.0356     -0.2287     -0.0471     -0.1038       90.18
        46         0.0487     -0.0272      0.0600      0.0272       90.00
        47        -0.1191      0.1300     -0.0528     -0.0140       90.00
        48         0.1389     -0.0077     -0.0005      0.0436       90.00
        49        -0.0395     -0.0512     -0.0597     -0.0501       90.00
        50         0.0151     -0.0049     -0.1408     -0.0436       90.00
 1/2[<0|r|b>*<b|rxdel|0> + (<0|rxdel|b>*<b|r|0>)*]
 Rotatory Strengths (R) in cgs (10**-40 erg-esu-cm/Gauss)
       state          XX          YY          ZZ     R(length)
         1        -0.0997     -0.1380      0.0106     -0.0757
         2        -0.0738      0.0062     -0.0004     -0.0227
         3        -0.0002     -0.0055      0.0017     -0.0013
         4        -0.0142      0.0007     -0.0634     -0.0256
         5         0.0280      0.0049      0.0291      0.0207
         6         0.1349      0.0227     -0.0358      0.0406
         7        -0.1475     -0.0552      0.0583     -0.0481
         8         0.0089      0.0112      0.0090      0.0097
         9        -0.0094     -0.0064      0.2363      0.0735
        10        -0.0002      0.0235     -0.0100      0.0044
        11        -0.0324      0.0326     -0.0004     -0.0001
        12        -0.0269     -0.0151      0.0076     -0.0115
        13        -0.0004     -0.1104     -0.0111     -0.0406
        14         0.0009      0.1652      0.0002      0.0554
        15        -0.0016      0.0330      0.0105      0.0140
        16         0.0159      0.0048     -0.0008      0.0066
        17        -0.0356      0.0024     -0.0009     -0.0114
        18         0.0261     -0.0036     -0.0389     -0.0055
        19         0.0003      0.0107      0.0232      0.0114
        20         0.0020      0.0055      0.0049      0.0041
        21         0.0181     -0.0007     -0.0017      0.0052
        22        -0.0032      0.0459     -0.2389     -0.0654
        23        -0.0052     -0.0423      0.1819      0.0448
        24        -0.0122      0.0559      0.0007      0.0148
        25         0.0170      0.0001      0.1895      0.0689
        26        -0.1690      0.0554      0.0161     -0.0325
        27         0.2635     -0.2893      0.0027     -0.0077
        28         0.0123      0.0512      0.0190      0.0275
        29         0.0300     -0.1109     -0.0797     -0.0535
        30        -0.2156      0.4476      0.0735      0.1019
        31        -0.7170     -0.2554      0.1052     -0.2890
        32         1.0375      0.0047     -0.0193      0.3410
        33         0.0082     -0.1193     -0.0533     -0.0548
        34         0.0285     -0.1516     -0.1265     -0.0832
        35        -0.0011     -0.0117      0.0067     -0.0020
        36        -0.0054     -0.0343     -0.0258     -0.0218
        37        -0.0477      0.0956     -0.0012      0.0156
        38         0.0423      0.0127      0.0342      0.0297
        39        -0.0037      0.0329      0.0265      0.0185
        40        -0.0116     -0.0023     -0.0070     -0.0069
        41        -0.0582      0.0018     -0.0128     -0.0231
        42        -0.0165      0.0595     -0.2070     -0.0547
        43         0.0001     -0.0507     -0.0124     -0.0210
        44         0.2360      0.0270      0.0776      0.1135
        45        -0.2770      0.0005     -0.0564     -0.1110
        46        -0.0308      0.1081      0.0047      0.0273
        47         0.0953     -0.2762      0.1363     -0.0149
        48         0.0033     -0.0090      0.1292      0.0412
        49        -0.1285     -0.0057     -0.0313     -0.0552
        50         0.1121     -0.5617      0.2726     -0.0590
  1/2[<0|del|b>*<b|r|0> + (<0|r|b>*<b|del|0>)*] (Au)
       state          X           Y           Z        Dip. S.   Osc.(frdel)
         1        -1.9844     -0.0448     -0.0000      2.0292      1.3528
         2        -0.0000     -0.0000     -0.0017      0.0017      0.0011
         3         0.0000     -0.0000     -0.0009      0.0009      0.0006
         4        -0.0000     -0.0000     -0.0043      0.0043      0.0029
         5        -0.0187     -0.0008     -0.0000      0.0195      0.0130
         6        -0.0138     -0.0068     -0.0000      0.0206      0.0137
         7        -0.0000     -0.0000     -0.0003      0.0003      0.0002
         8        -0.0000     -0.0000     -0.0003      0.0003      0.0002
         9        -0.0065     -0.0029     -0.0000      0.0093      0.0062
        10         0.0000     -0.0000     -0.0002      0.0002      0.0001
        11        -0.0000     -0.0000     -0.0001      0.0001      0.0001
        12        -0.0138     -0.0000     -0.0000      0.0139      0.0093
        13        -0.0000     -0.0000     -0.0001      0.0001      0.0000
        14        -0.0001     -0.0059     -0.0000      0.0060      0.0040
        15        -0.0000     -0.0000     -0.0001      0.0001      0.0001
        16        -0.0000     -0.0000     -0.0001      0.0001      0.0000
        17        -0.0000     -0.0000     -0.0000      0.0000      0.0000
        18        -0.0000     -0.0000     -0.0177      0.0177      0.0118
        19        -0.0024     -0.0002     -0.0000      0.0026      0.0017
        20        -0.0000     -0.0000     -0.0002      0.0002      0.0001
        21        -0.0000     -0.0000     -0.0000      0.0000      0.0000
        22        -0.0017     -0.0009     -0.0000      0.0026      0.0018
        23        -0.0000     -0.0000     -0.0135      0.0135      0.0090
        24        -0.0000     -0.0000     -0.0000      0.0000      0.0000
        25        -0.0029     -0.0000     -0.0000      0.0029      0.0019
        26        -0.0000     -0.0000     -0.0006      0.0006      0.0004
        27        -0.0153     -0.0042      0.0000      0.0195      0.0130
        28        -0.0000     -0.0000     -0.0010      0.0010      0.0006
        29        -0.0000     -0.0000     -0.0015      0.0015      0.0010
        30        -0.0639     -0.0331     -0.0000      0.0970      0.0647
        31        -0.0787     -0.1820     -0.0000      0.2606      0.1738
        32        -0.0000     -0.0000     -0.0006      0.0006      0.0004
        33        -0.0000     -0.0000     -0.0121      0.0121      0.0081
        34        -0.0000     -0.0000     -0.0092      0.0092      0.0061
        35        -0.0000     -0.0000     -0.0002      0.0002      0.0001
        36        -0.0000     -0.0000     -0.0068      0.0068      0.0046
        37        -0.0000     -0.0000     -0.0005      0.0005      0.0003
        38        -0.0041     -0.0006     -0.0000      0.0046      0.0031
        39        -0.0000     -0.0000     -0.0154      0.0154      0.0103
        40        -0.0000     -0.0000     -0.0003      0.0003      0.0002
        41        -0.0000     -0.0000     -0.0107      0.0107      0.0072
        42        -0.0008     -0.0071     -0.0000      0.0078      0.0052
        43        -0.0000     -0.0000     -0.0002      0.0002      0.0001
        44        -0.0381     -0.0182     -0.0000      0.0563      0.0376
        45        -0.0000     -0.0000     -0.0387      0.0388      0.0258
        46        -0.0000     -0.0000     -0.0000      0.0000      0.0000
        47        -0.0071     -0.0844     -0.0000      0.0915      0.0610
        48        -0.0000     -0.0000     -0.0121      0.0121      0.0080
        49        -0.0000      0.0000     -0.0170      0.0170      0.0113
        50        -0.0135     -0.0429     -0.0000      0.0564      0.0376

 Excitation energies and oscillator strengths:
 
 Excited State   1:      Singlet-A      4.2062 eV  294.77 nm  f=1.3857  <S**2>=0.000
      38 -> 39         0.70624
 This state for optimization and/or second-order correction.
 Total Energy, E(TD-HF/TD-DFT) =  -390.610695635    
 Copying the excited state density for this state as the 1-particle RhoCI density.
 
 Excited State   2:      Singlet-A      4.8961 eV  253.23 nm  f=0.0013  <S**2>=0.000
      38 -> 40         0.69582
 
 Excited State   3:      Singlet-A      5.2316 eV  236.99 nm  f=0.0007  <S**2>=0.000
      38 -> 41         0.69602
 
 Excited State   4:      Singlet-A      5.3582 eV  231.39 nm  f=0.0028  <S**2>=0.000
      38 -> 42         0.69518
 
 Excited State   5:      Singlet-A      5.4104 eV  229.16 nm  f=0.0136  <S**2>=0.000
      37 -> 39         0.53087
      38 -> 43         0.45941
 
 Excited State   6:      Singlet-A      5.7633 eV  215.13 nm  f=0.0149  <S**2>=0.000
      38 -> 45         0.68642
 
 Excited State   7:      Singlet-A      5.7663 eV  215.01 nm  f=0.0003  <S**2>=0.000
      38 -> 44         0.69318
 
 Excited State   8:      Singlet-A      5.9317 eV  209.02 nm  f=0.0003  <S**2>=0.000
      38 -> 46         0.68906
 
 Excited State   9:      Singlet-A      6.0221 eV  205.88 nm  f=0.0067  <S**2>=0.000
      37 -> 39        -0.39905
      38 -> 43         0.49318
      38 -> 49         0.15874
      38 -> 50         0.18959
 
 Excited State  10:      Singlet-A      6.1155 eV  202.74 nm  f=0.0001  <S**2>=0.000
      38 -> 47        -0.37003
      38 -> 48         0.58954
 
 Excited State  11:      Singlet-A      6.1949 eV  200.14 nm  f=0.0001  <S**2>=0.000
      38 -> 46         0.11916
      38 -> 47         0.58137
      38 -> 48         0.36084
 
 Excited State  12:      Singlet-A      6.2260 eV  199.14 nm  f=0.0100  <S**2>=0.000
      36 -> 39        -0.10186
      38 -> 49         0.66377
      38 -> 50        -0.15025
 
 Excited State  13:      Singlet-A      6.4342 eV  192.70 nm  f=0.0000  <S**2>=0.000
      38 -> 51         0.69518
 
 Excited State  14:      Singlet-A      6.4512 eV  192.19 nm  f=0.0039  <S**2>=0.000
      37 -> 39         0.15330
      38 -> 43        -0.12873
      38 -> 49         0.10222
      38 -> 50         0.65491
 
 Excited State  15:      Singlet-A      6.5903 eV  188.13 nm  f=0.0001  <S**2>=0.000
      37 -> 40         0.10859
      38 -> 52         0.67915
 
 Excited State  16:      Singlet-A      6.6548 eV  186.31 nm  f=0.0001  <S**2>=0.000
      35 -> 39         0.69793
 
 Excited State  17:      Singlet-A      6.7543 eV  183.56 nm  f=0.0000  <S**2>=0.000
      37 -> 40         0.67652
      38 -> 52        -0.12078
 
 Excited State  18:      Singlet-A      7.0073 eV  176.94 nm  f=0.0110  <S**2>=0.000
      37 -> 41        -0.29042
      38 -> 53         0.62021
 
 Excited State  19:      Singlet-A      7.0255 eV  176.48 nm  f=0.0017  <S**2>=0.000
      36 -> 39         0.56237
      38 -> 49         0.11516
      38 -> 54        -0.29849
      38 -> 57        -0.24478
 
 Excited State  20:      Singlet-A      7.0417 eV  176.07 nm  f=0.0001  <S**2>=0.000
      34 -> 39         0.69312
 
 Excited State  21:      Singlet-A      7.1101 eV  174.38 nm  f=0.0000  <S**2>=0.000
      37 -> 41         0.60569
      37 -> 42         0.11719
      38 -> 53         0.27777
      38 -> 55         0.15667
 
 Excited State  22:      Singlet-A      7.1402 eV  173.64 nm  f=0.0019  <S**2>=0.000
      36 -> 39         0.23813
      38 -> 54         0.57570
      38 -> 56        -0.23292
      38 -> 57        -0.17654
 
 Excited State  23:      Singlet-A      7.1670 eV  172.99 nm  f=0.0093  <S**2>=0.000
      37 -> 41        -0.15320
      37 -> 42         0.43611
      38 -> 53        -0.15100
      38 -> 55         0.49648
 
 Excited State  24:      Singlet-A      7.2301 eV  171.48 nm  f=0.0000  <S**2>=0.000
      37 -> 42         0.52485
      38 -> 55        -0.45815
 
 Excited State  25:      Singlet-A      7.2977 eV  169.90 nm  f=0.0022  <S**2>=0.000
      38 -> 54         0.20940
      38 -> 56         0.65311
 
 Excited State  26:      Singlet-A      7.4415 eV  166.61 nm  f=0.0003  <S**2>=0.000
      32 -> 39         0.20901
      33 -> 39         0.65483
 
 Excited State  27:      Singlet-A      7.4610 eV  166.18 nm  f=0.0133  <S**2>=0.000
      36 -> 39         0.25023
      37 -> 43         0.29214
      38 -> 57         0.57835
 
 Excited State  28:      Singlet-A      7.5519 eV  164.18 nm  f=0.0008  <S**2>=0.000
      37 -> 44         0.16111
      38 -> 58         0.66732
 
 Excited State  29:      Singlet-A      7.6053 eV  163.02 nm  f=0.0009  <S**2>=0.000
      37 -> 44         0.65364
      38 -> 58        -0.17719
 
 Excited State  30:      Singlet-A      7.6104 eV  162.91 nm  f=0.0666  <S**2>=0.000
      37 -> 43         0.37545
      37 -> 45         0.56290
      38 -> 57        -0.15201
 
 Excited State  31:      Singlet-A      7.6537 eV  161.99 nm  f=0.1779  <S**2>=0.000
      36 -> 39        -0.13847
      37 -> 43         0.50131
      37 -> 45        -0.39680
      38 -> 57        -0.18175
 
 Excited State  32:      Singlet-A      7.6781 eV  161.48 nm  f=0.0003  <S**2>=0.000
      30 -> 39        -0.20852
      32 -> 39         0.58690
      33 -> 39        -0.21648
      38 -> 59         0.17808
 
 Excited State  33:      Singlet-A      7.7179 eV  160.65 nm  f=0.0072  <S**2>=0.000
      32 -> 39        -0.17130
      38 -> 59         0.65510
 
 Excited State  34:      Singlet-A      7.7687 eV  159.59 nm  f=0.0062  <S**2>=0.000
      37 -> 46         0.67990
 
 Excited State  35:      Singlet-A      7.8741 eV  157.46 nm  f=0.0002  <S**2>=0.000
      38 -> 60         0.67918
 
 Excited State  36:      Singlet-A      7.9592 eV  155.78 nm  f=0.0043  <S**2>=0.000
      31 -> 39         0.57859
      32 -> 39        -0.11283
      37 -> 47         0.21241
      37 -> 48        -0.26784
 
 Excited State  37:      Singlet-A      7.9664 eV  155.63 nm  f=0.0003  <S**2>=0.000
      31 -> 39         0.34372
      37 -> 47        -0.30843
      37 -> 48         0.51071
 
 Excited State  38:      Singlet-A      7.9892 eV  155.19 nm  f=0.0031  <S**2>=0.000
      37 -> 49        -0.14546
      38 -> 61         0.67511
 
 Excited State  39:      Singlet-A      8.0519 eV  153.98 nm  f=0.0099  <S**2>=0.000
      36 -> 40         0.11062
      37 -> 46         0.10903
      37 -> 47         0.54556
      37 -> 48         0.36252
      38 -> 62        -0.11027
 
 Excited State  40:      Singlet-A      8.0903 eV  153.25 nm  f=0.0003  <S**2>=0.000
      30 -> 39         0.64768
      31 -> 39         0.10249
      32 -> 39         0.21211
 
 Excited State  41:      Singlet-A      8.1230 eV  152.63 nm  f=0.0073  <S**2>=0.000
      38 -> 62         0.61854
      38 -> 63         0.29252
 
 Excited State  42:      Singlet-A      8.1388 eV  152.34 nm  f=0.0052  <S**2>=0.000
      37 -> 49         0.66860
      37 -> 50         0.10576
      38 -> 61         0.13774
 
 Excited State  43:      Singlet-A      8.2379 eV  150.51 nm  f=0.0002  <S**2>=0.000
      38 -> 62        -0.29778
      38 -> 63         0.61871
 
 Excited State  44:      Singlet-A      8.2440 eV  150.39 nm  f=0.0386  <S**2>=0.000
      37 -> 49        -0.10374
      37 -> 50         0.68068
 
 Excited State  45:      Singlet-A      8.2670 eV  149.97 nm  f=0.0255  <S**2>=0.000
      36 -> 40        -0.46596
      37 -> 51         0.49210
 
 Excited State  46:      Singlet-A      8.3134 eV  149.14 nm  f=0.0000  <S**2>=0.000
      36 -> 40         0.48435
      37 -> 51         0.47794
      38 -> 63         0.11708
 
 Excited State  47:      Singlet-A      8.3703 eV  148.12 nm  f=0.0614  <S**2>=0.000
      34 -> 41         0.15473
      35 -> 40         0.66529
      38 -> 64        -0.10405
 
 Excited State  48:      Singlet-A      8.4008 eV  147.59 nm  f=0.0076  <S**2>=0.000
      28 -> 39         0.67949
 
 Excited State  49:      Singlet-A      8.4574 eV  146.60 nm  f=0.0109  <S**2>=0.000
      37 -> 52         0.67426
 
 Excited State  50:      Singlet-A      8.5066 eV  145.75 nm  f=0.0403  <S**2>=0.000
      29 -> 39         0.56203
      38 -> 64         0.39404
 SavETr:  write IOETrn=   770 NScale= 10 NData=  16 NLR=1 NState=   50 LETran=     910.

 **********************************************************************

            Population analysis using the SCF Density.

 **********************************************************************

 Orbital symmetries:
       Occupied  (A) (A) (A) (A) (A) (A) (A) (A) (A) (A) (A) (A)
                 (A) (A) (A) (A) (A) (A) (A) (A) (A) (A) (A) (A)
                 (A) (A) (A) (A) (A) (A) (A) (A) (A) (A) (A) (A)
                 (A) (A)
       Virtual   (A) (A) (A) (A) (A) (A) (A) (A) (A) (A) (A) (A)
                 (A) (A) (A) (A) (A) (A) (A) (A) (A) (A) (A) (A)
                 (A) (A) (A) (A) (A) (A) (A) (A) (A) (A) (A) (A)
                 (A) (A) (A) (A) (A) (A) (A) (A) (A) (A) (A) (A)
                 (A) (A) (A) (A) (A) (A) (A) (A) (A) (A) (A) (A)
                 (A) (A) (A) (A) (A) (A) (A) (A) (A) (A) (A) (A)
                 (A) (A) (A) (A) (A) (A) (A) (A) (A) (A) (A) (A)
                 (A) (A) (A) (A) (A) (A) (A) (A) (A) (A) (A) (A)
                 (A) (A) (A) (A) (A) (A) (A) (A) (A) (A) (A) (A)
                 (A) (A) (A) (A) (A) (A) (A) (A) (A) (A) (A) (A)
                 (A) (A) (A) (A) (A) (A) (A) (A) (A) (A) (A) (A)
                 (A) (A) (A) (A) (A) (A) (A) (A) (A) (A) (A) (A)
                 (A) (A) (A) (A) (A) (A) (A) (A) (A) (A) (A) (A)
                 (A) (A) (A) (A) (A) (A) (A) (A) (A) (A) (A) (A)
                 (A) (A) (A) (A) (A) (A) (A) (A) (A) (A) (A) (A)
                 (A) (A) (A) (A) (A) (A) (A) (A) (A) (A) (A) (A)
                 (A) (A) (A) (A) (A) (A) (A) (A) (A) (A) (A) (A)
                 (A) (A) (A) (A) (A) (A) (A) (A) (A) (A) (A) (A)
                 (A) (A) (A) (A) (A) (A) (A) (A) (A) (A) (A) (A)
                 (A)
 The electronic state is 1-A.
 Alpha  occ. eigenvalues --  -10.17931 -10.17685 -10.16797 -10.16710 -10.16637
 Alpha  occ. eigenvalues --  -10.16137 -10.15818 -10.15709 -10.15633 -10.15584
 Alpha  occ. eigenvalues --   -0.82869  -0.80919  -0.76136  -0.71989  -0.68823
 Alpha  occ. eigenvalues --   -0.68101  -0.65142  -0.57084  -0.52843  -0.50957
 Alpha  occ. eigenvalues --   -0.47702  -0.45754  -0.43846  -0.42801  -0.41838
 Alpha  occ. eigenvalues --   -0.41292  -0.39861  -0.38117  -0.37983  -0.37350
 Alpha  occ. eigenvalues --   -0.36983  -0.36246  -0.35508  -0.33814  -0.32604
 Alpha  occ. eigenvalues --   -0.32250  -0.26545  -0.19829
 Alpha virt. eigenvalues --   -0.04038   0.00858   0.01771   0.02534   0.03316
 Alpha virt. eigenvalues --    0.03634   0.04157   0.04250   0.05234   0.05413
 Alpha virt. eigenvalues --    0.05811   0.05999   0.06059   0.06898   0.08385
 Alpha virt. eigenvalues --    0.08535   0.08956   0.09219   0.09870   0.10530
 Alpha virt. eigenvalues --    0.11148   0.11524   0.11890   0.12512   0.13156
 Alpha virt. eigenvalues --    0.14036   0.14181   0.14692   0.15363   0.15778
 Alpha virt. eigenvalues --    0.16441   0.17585   0.17705   0.18016   0.18485
 Alpha virt. eigenvalues --    0.19047   0.19886   0.20209   0.20557   0.21167
 Alpha virt. eigenvalues --    0.21996   0.22535   0.22812   0.22917   0.23255
 Alpha virt. eigenvalues --    0.23393   0.24049   0.24310   0.24695   0.25732
 Alpha virt. eigenvalues --    0.26474   0.26697   0.27413   0.27513   0.27670
 Alpha virt. eigenvalues --    0.28929   0.29955   0.31372   0.33000   0.34077
 Alpha virt. eigenvalues --    0.35109   0.35749   0.40643   0.41604   0.42734
 Alpha virt. eigenvalues --    0.42849   0.43253   0.44566   0.45135   0.46245
 Alpha virt. eigenvalues --    0.46985   0.47147   0.50103   0.51085   0.52256
 Alpha virt. eigenvalues --    0.53864   0.55410   0.55767   0.55905   0.57214
 Alpha virt. eigenvalues --    0.58312   0.59553   0.60304   0.60346   0.61165
 Alpha virt. eigenvalues --    0.61840   0.62020   0.62221   0.63339   0.63562
 Alpha virt. eigenvalues --    0.64539   0.64658   0.66743   0.66905   0.68166
 Alpha virt. eigenvalues --    0.68651   0.68761   0.70255   0.70318   0.71045
 Alpha virt. eigenvalues --    0.72243   0.72995   0.73450   0.75743   0.77558
 Alpha virt. eigenvalues --    0.78005   0.80850   0.82542   0.83791   0.86416
 Alpha virt. eigenvalues --    0.87040   0.88933   0.91498   0.92536   0.96779
 Alpha virt. eigenvalues --    0.97445   0.97965   1.00017   1.02811   1.05058
 Alpha virt. eigenvalues --    1.06175   1.08668   1.09425   1.11484   1.12453
 Alpha virt. eigenvalues --    1.17501   1.17680   1.20241   1.22932   1.33252
 Alpha virt. eigenvalues --    1.41346   1.45250   1.45904   1.49210   1.51353
 Alpha virt. eigenvalues --    1.52478   1.53285   1.54606   1.56599   1.58379
 Alpha virt. eigenvalues --    1.58815   1.59451   1.60694   1.61232   1.62749
 Alpha virt. eigenvalues --    1.65967   1.66416   1.68515   1.70589   1.70907
 Alpha virt. eigenvalues --    1.72766   1.74010   1.77366   1.80907   1.86757
 Alpha virt. eigenvalues --    1.87353   1.90777   1.91275   1.97841   1.97946
 Alpha virt. eigenvalues --    2.03123   2.04834   2.08150   2.09092   2.16111
 Alpha virt. eigenvalues --    2.17429   2.19211   2.23426   2.31386   2.31980
 Alpha virt. eigenvalues --    2.35731   2.43914   2.46451   2.46487   2.48378
 Alpha virt. eigenvalues --    2.49038   2.50132   2.51126   2.53259   2.54028
 Alpha virt. eigenvalues --    2.56900   2.57180   2.57983   2.60192   2.66541
 Alpha virt. eigenvalues --    2.69107   2.70807   2.72976   2.82778   2.84786
 Alpha virt. eigenvalues --    2.90213   2.93744   2.95985   2.99062   3.00967
 Alpha virt. eigenvalues --    3.06702   3.08510   3.09637   3.12793   3.14749
 Alpha virt. eigenvalues --    3.16919   3.18101   3.19554   3.21284   3.23726
 Alpha virt. eigenvalues --    3.24971   3.25445   3.31813   3.33212   3.37165
 Alpha virt. eigenvalues --    3.44982   3.47597   3.62985   3.77258   3.87510
 Alpha virt. eigenvalues --    4.01412   4.14366   4.22260   4.50655  23.34110
 Alpha virt. eigenvalues --   23.50409  23.63326  23.66271  23.69818  23.71302
 Alpha virt. eigenvalues --   23.77919  24.14565  24.16678  24.18611
          Condensed to atoms (all electrons):
               1          2          3          4          5          6
     1  C    8.096524  -2.358859   2.805080  -1.375489   0.057046  -0.084328
     2  C   -2.358859  12.407429  -7.656843   3.823642  -1.972383  -0.067911
     3  C    2.805080  -7.656843  18.569602  -6.070142   1.663832  -0.768860
     4  C   -1.375489   3.823642  -6.070142  13.328947  -2.771461  -1.526057
     5  C    0.057046  -1.972383   1.663832  -2.771461   8.864439   0.786942
     6  C   -0.084328  -0.067911  -0.768860  -1.526057   0.786942   6.619978
     7  C    0.000561  -0.156093  -0.064529  -0.362584   0.198853   0.311806
     8  C   -0.001106  -0.009179  -0.092938  -0.577334  -0.564455   0.283095
     9  C   -1.119337   1.759108  -2.591637   1.311429  -0.676933   0.012847
    10  C   -0.003009   0.102495  -0.240510   0.171294  -0.269467  -0.296440
    11  H    0.323922   0.037293  -0.084737   0.020065   0.004966   0.000477
    12  H    0.323979   0.037159  -0.084664   0.019979   0.004951   0.000475
    13  H    0.450917  -0.353168   0.298838  -0.019261   0.005576  -0.000920
    14  H   -0.003301   0.038168   0.140998   0.137051  -0.012299  -0.000716
    15  H    0.008828  -0.055281   0.072762   0.138315   0.096944   0.012443
    16  H   -0.000072   0.031483  -0.008150   0.030100   0.256953  -0.102276
    17  H    0.000012   0.001105   0.000168   0.056952   0.102101  -0.112415
    18  H   -0.000002   0.000072   0.000789   0.006386   0.040138  -0.025389
    19  H    0.000003  -0.000065   0.000024   0.001747  -0.011917  -0.007446
    20  H    0.000003  -0.000064   0.000037   0.001801  -0.011660  -0.006704
    21  H   -0.049009  -0.062299  -0.019030   0.062559  -0.006558   0.005848
    22  H    0.028793  -0.091985   0.048719  -0.023906   0.016699   0.000321
    23  H    0.028736  -0.091996   0.048457  -0.023619   0.016692   0.000333
    24  H   -0.000375  -0.001525  -0.009873   0.006621   0.005006  -0.024546
    25  H    0.000102  -0.000596   0.013731   0.005586  -0.009000  -0.065649
    26  H   -0.000374  -0.001507  -0.009750   0.006678   0.005171  -0.024511
               7          8          9         10         11         12
     1  C    0.000561  -0.001106  -1.119337  -0.003009   0.323922   0.323979
     2  C   -0.156093  -0.009179   1.759108   0.102495   0.037293   0.037159
     3  C   -0.064529  -0.092938  -2.591637  -0.240510  -0.084737  -0.084664
     4  C   -0.362584  -0.577334   1.311429   0.171294   0.020065   0.019979
     5  C    0.198853  -0.564455  -0.676933  -0.269467   0.004966   0.004951
     6  C    0.311806   0.283095   0.012847  -0.296440   0.000477   0.000475
     7  C    6.857204  -0.602701  -0.019046  -0.196141   0.000037   0.000037
     8  C   -0.602701   7.815015  -0.002622   0.111192   0.000002   0.000002
     9  C   -0.019046  -0.002622   7.666430  -0.007909   0.024306   0.024408
    10  C   -0.196141   0.111192  -0.007909   7.049695   0.000016   0.000016
    11  H    0.000037   0.000002   0.024306   0.000016   0.474332  -0.043279
    12  H    0.000037   0.000002   0.024408   0.000016  -0.043279   0.474362
    13  H    0.000190  -0.000006  -0.042690  -0.000045  -0.024308  -0.024310
    14  H    0.001504  -0.000178  -0.007465   0.000893   0.000475   0.000475
    15  H    0.011006   0.003623  -0.010808   0.010715  -0.000001  -0.000001
    16  H    0.083716   0.010336   0.001977  -0.013749  -0.000000  -0.000000
    17  H    0.374925  -0.110352   0.000063  -0.015957   0.000000   0.000000
    18  H    0.053225   0.237487   0.000016   0.016689  -0.000000  -0.000000
    19  H   -0.058351   0.415532  -0.000003  -0.008149   0.000000  -0.000000
    20  H   -0.059076   0.415247  -0.000003  -0.008177  -0.000000   0.000000
    21  H   -0.000546  -0.000022   0.405970  -0.000764  -0.000084  -0.000083
    22  H    0.000138   0.000012   0.347134   0.000177  -0.001747   0.005093
    23  H    0.000139   0.000012   0.347180   0.000177   0.005095  -0.001754
    24  H   -0.007314  -0.004306   0.000235   0.363037   0.000000  -0.000000
    25  H   -0.023405   0.018236  -0.000207   0.401773   0.000000   0.000000
    26  H   -0.007569  -0.004295   0.000230   0.362859  -0.000000   0.000000
              13         14         15         16         17         18
     1  C    0.450917  -0.003301   0.008828  -0.000072   0.000012  -0.000002
     2  C   -0.353168   0.038168  -0.055281   0.031483   0.001105   0.000072
     3  C    0.298838   0.140998   0.072762  -0.008150   0.000168   0.000789
     4  C   -0.019261   0.137051   0.138315   0.030100   0.056952   0.006386
     5  C    0.005576  -0.012299   0.096944   0.256953   0.102101   0.040138
     6  C   -0.000920  -0.000716   0.012443  -0.102276  -0.112415  -0.025389
     7  C    0.000190   0.001504   0.011006   0.083716   0.374925   0.053225
     8  C   -0.000006  -0.000178   0.003623   0.010336  -0.110352   0.237487
     9  C   -0.042690  -0.007465  -0.010808   0.001977   0.000063   0.000016
    10  C   -0.000045   0.000893   0.010715  -0.013749  -0.015957   0.016689
    11  H   -0.024308   0.000475  -0.000001  -0.000000   0.000000  -0.000000
    12  H   -0.024310   0.000475  -0.000001  -0.000000   0.000000  -0.000000
    13  H    0.439745   0.002162   0.000016   0.000008  -0.000000   0.000000
    14  H    0.002162   0.460991   0.003903   0.002726   0.000014   0.000000
    15  H    0.000016   0.003903   0.443086   0.005292   0.000021  -0.000006
    16  H    0.000008   0.002726   0.005292   0.462241   0.002115  -0.000001
    17  H   -0.000000   0.000014   0.000021   0.002115   0.456043   0.004850
    18  H    0.000000   0.000000  -0.000006  -0.000001   0.004850   0.448703
    19  H   -0.000000   0.000000   0.000000  -0.000062  -0.002492  -0.026187
    20  H   -0.000000   0.000000   0.000000  -0.000062  -0.002520  -0.026208
    21  H   -0.000180  -0.000003   0.004651   0.000035   0.000000  -0.000000
    22  H   -0.000081  -0.000152   0.000109  -0.000000  -0.000000  -0.000000
    23  H   -0.000080  -0.000152   0.000110  -0.000000  -0.000000  -0.000000
    24  H   -0.000000  -0.000007  -0.002318  -0.000139  -0.000238  -0.000248
    25  H    0.000000   0.000004   0.000794  -0.000112   0.000257   0.008823
    26  H   -0.000000  -0.000007  -0.002322  -0.000139  -0.000238  -0.000248
              19         20         21         22         23         24
     1  C    0.000003   0.000003  -0.049009   0.028793   0.028736  -0.000375
     2  C   -0.000065  -0.000064  -0.062299  -0.091985  -0.091996  -0.001525
     3  C    0.000024   0.000037  -0.019030   0.048719   0.048457  -0.009873
     4  C    0.001747   0.001801   0.062559  -0.023906  -0.023619   0.006621
     5  C   -0.011917  -0.011660  -0.006558   0.016699   0.016692   0.005006
     6  C   -0.007446  -0.006704   0.005848   0.000321   0.000333  -0.024546
     7  C   -0.058351  -0.059076  -0.000546   0.000138   0.000139  -0.007314
     8  C    0.415532   0.415247  -0.000022   0.000012   0.000012  -0.004306
     9  C   -0.000003  -0.000003   0.405970   0.347134   0.347180   0.000235
    10  C   -0.008149  -0.008177  -0.000764   0.000177   0.000177   0.363037
    11  H    0.000000  -0.000000  -0.000084  -0.001747   0.005095   0.000000
    12  H   -0.000000   0.000000  -0.000083   0.005093  -0.001754  -0.000000
    13  H   -0.000000  -0.000000  -0.000180  -0.000081  -0.000080  -0.000000
    14  H    0.000000   0.000000  -0.000003  -0.000152  -0.000152  -0.000007
    15  H    0.000000   0.000000   0.004651   0.000109   0.000110  -0.002318
    16  H   -0.000062  -0.000062   0.000035  -0.000000  -0.000000  -0.000139
    17  H   -0.002492  -0.002520   0.000000  -0.000000  -0.000000  -0.000238
    18  H   -0.026187  -0.026208  -0.000000  -0.000000  -0.000000  -0.000248
    19  H    0.468383  -0.039914   0.000000  -0.000000   0.000000   0.000378
    20  H   -0.039914   0.468486   0.000000   0.000000  -0.000000  -0.000182
    21  H    0.000000   0.000000   0.434996  -0.024999  -0.025024  -0.000026
    22  H   -0.000000   0.000000  -0.024999   0.469208  -0.040195  -0.000006
    23  H    0.000000  -0.000000  -0.025024  -0.040195   0.469282   0.000015
    24  H    0.000378  -0.000182  -0.000026  -0.000006   0.000015   0.465801
    25  H   -0.000174  -0.000172  -0.000001   0.000000   0.000000  -0.025454
    26  H   -0.000183   0.000376  -0.000026   0.000015  -0.000006  -0.039520
              25         26
     1  C    0.000102  -0.000374
     2  C   -0.000596  -0.001507
     3  C    0.013731  -0.009750
     4  C    0.005586   0.006678
     5  C   -0.009000   0.005171
     6  C   -0.065649  -0.024511
     7  C   -0.023405  -0.007569
     8  C    0.018236  -0.004295
     9  C   -0.000207   0.000230
    10  C    0.401773   0.362859
    11  H    0.000000  -0.000000
    12  H    0.000000   0.000000
    13  H    0.000000  -0.000000
    14  H    0.000004  -0.000007
    15  H    0.000794  -0.002322
    16  H   -0.000112  -0.000139
    17  H    0.000257  -0.000238
    18  H    0.008823  -0.000248
    19  H   -0.000174  -0.000183
    20  H   -0.000172   0.000376
    21  H   -0.000001  -0.000026
    22  H    0.000000   0.000015
    23  H    0.000000  -0.000006
    24  H   -0.025454  -0.039520
    25  H    0.429435  -0.025459
    26  H   -0.025459   0.465877
 Mulliken charges:
               1
     1  C   -1.129245
     2  C    0.641800
     3  C    0.038626
     4  C   -0.379300
     5  C    0.179822
     6  C    1.079602
     7  C   -0.335985
     8  C   -1.340300
     9  C   -1.422674
    10  C   -1.530714
    11  H    0.263168
    12  H    0.263153
    13  H    0.267597
    14  H    0.234917
    15  H    0.258118
    16  H    0.237781
    17  H    0.245586
    18  H    0.261112
    19  H    0.268877
    20  H    0.268792
    21  H    0.274595
    22  H    0.266652
    23  H    0.266597
    24  H    0.274986
    25  H    0.271489
    26  H    0.274948
 Sum of Mulliken charges =  -0.00000
 Mulliken charges with hydrogens summed into heavy atoms:
               1
     1  C   -0.335326
     2  C    0.641800
     3  C    0.273543
     4  C   -0.121182
     5  C    0.417603
     6  C    1.079602
     7  C   -0.090399
     8  C   -0.541520
     9  C   -0.614829
    10  C   -0.709290
 Electronic spatial extent (au):  <R**2>=           2881.2104
 Charge=              0.0000 electrons
 Dipole moment (field-independent basis, Debye):
    X=              0.1194    Y=              0.5682    Z=              0.0002  Tot=              0.5806
 Quadrupole moment (field-independent basis, Debye-Ang):
   XX=            -53.4416   YY=            -60.0034   ZZ=            -68.4753
   XY=              1.0097   XZ=              0.0012   YZ=              0.0002
 Traceless Quadrupole moment (field-independent basis, Debye-Ang):
   XX=              7.1985   YY=              0.6367   ZZ=             -7.8352
   XY=              1.0097   XZ=              0.0012   YZ=              0.0002
 Octapole moment (field-independent basis, Debye-Ang**2):
  XXX=             -1.1486  YYY=             -3.8641  ZZZ=              0.0013  XYY=             -2.6108
  XXY=              0.9824  XXZ=              0.0040  XZZ=              2.4470  YZZ=              3.2503
  YYZ=              0.0013  XYZ=              0.0035
 Hexadecapole moment (field-independent basis, Debye-Ang**3):
 XXXX=          -3282.2402 YYYY=           -452.1866 ZZZZ=           -108.9621 XXXY=             24.5800
 XXXZ=             -0.0050 YYYX=             -1.2349 YYYZ=              0.0009 ZZZX=              0.0231
 ZZZY=             -0.0001 XXYY=           -640.9753 XXZZ=           -600.3692 YYZZ=            -96.1504
 XXYZ=             -0.0128 YYXZ=             -0.0172 ZZXY=              5.5051
 N-N= 4.785987318692D+02 E-N=-1.862233322443D+03  KE= 3.888541912833D+02
 Unable to Open any file for archive entry.
 1\1\GINC-CN06\SP\RB3LYP TD-FC\6-311+G(d)\C10H16\2100011873\03-Nov-2023
 \0\\# td=(nstates=50) b3lyp/6-311+g* scrf(smd, solvent=ethanol)\\B-2\\
 0,1\C,0,4.186043,-0.985243,-0.000113\C,0,2.965678,-0.099955,0.000017\C
 ,0,1.724259,-0.63647,-0.000213\C,0,0.452578,0.059668,-0.000179\C,0,-0.
 741079,-0.579413,-0.000205\C,0,-2.064372,0.040415,-0.000137\C,0,-3.152
 878,-0.763225,0.000253\C,0,-4.604173,-0.385851,0.000427\C,0,3.260391,1
 .378273,0.000567\C,0,-2.133175,1.550261,-0.000541\H,0,4.817179,-0.7912
 17,-0.879673\H,0,4.817098,-0.791647,0.879598\H,0,3.922096,-2.047445,-0
 .000374\H,0,1.652379,-1.72528,-0.000493\H,0,0.469127,1.146468,-0.00011
 3\H,0,-0.735417,-1.670538,-0.000304\H,0,-2.968126,-1.838635,0.00044\H,
 0,-4.773466,0.693748,0.001475\H,0,-5.114894,-0.80271,-0.879231\H,0,-5.
 115042,-0.80447,0.879137\H,0,2.363003,2.000757,0.000075\H,0,3.859006,1
 .653716,0.880554\H,0,3.86032,1.65418,-0.878355\H,0,-1.627265,1.964044,
 -0.882102\H,0,-3.158688,1.923675,-0.000452\H,0,-1.626926,1.964596,0.88
 0567\\Version=ES64L-G16RevC.02\State=1-A\HF=-390.7652692\RMSD=6.743e-0
 9\PG=C01 [X(C10H16)]\\@
 The archive entry for this job was punched.


 IN THE LONG RUN, DIGGING FOR TRUTH HAS ALWAYS PROVED NOT ONLY 
 MORE INTERESTING BUT MORE PROFITABLE THAN DIGGING FOR GOLD.

                             -- GEORGE R. HARRISON
 Job cpu time:       0 days  1 hours 10 minutes 38.1 seconds.
 Elapsed time:       0 days  0 hours  2 minutes 29.3 seconds.
 File lengths (MBytes):  RWF=   2720 Int=      0 D2E=      0 Chk=    144 Scr=     32
 Normal termination of Gaussian 16 at Fri Nov  3 12:55:47 2023.
