 Entering Gaussian System, Link 0=g16
 Initial command:
 /nfs-share/home/2100011873/Gaussian16_AVX2/g16/l1.exe "/nfs-share/home/2100011873/GaussTmp/Gau-104266.inp" -scrdir="/nfs-share/home/2100011873/GaussTmp/"
 Entering Link 1 = /nfs-share/home/2100011873/Gaussian16_AVX2/g16/l1.exe PID=    104267.
  
 Copyright (c) 1988-2021, Gaussian, Inc.  All Rights Reserved.
  
 This is part of the Gaussian(R) 16 program.  It is based on
 the Gaussian(R) 09 system (copyright 2009, Gaussian, Inc.),
 the Gaussian(R) 03 system (copyright 2003, Gaussian, Inc.),
 the Gaussian(R) 98 system (copyright 1998, Gaussian, Inc.),
 the Gaussian(R) 94 system (copyright 1995, Gaussian, Inc.),
 the Gaussian 92(TM) system (copyright 1992, Gaussian, Inc.),
 the Gaussian 90(TM) system (copyright 1990, Gaussian, Inc.),
 the Gaussian 88(TM) system (copyright 1988, Gaussian, Inc.),
 the Gaussian 86(TM) system (copyright 1986, Carnegie Mellon
 University), and the Gaussian 82(TM) system (copyright 1983,
 Carnegie Mellon University). Gaussian is a federally registered
 trademark of Gaussian, Inc.
  
 This software contains proprietary and confidential information,
 including trade secrets, belonging to Gaussian, Inc.
  
 This software is provided under written license and may be
 used, copied, transmitted, or stored only in accord with that
 written license.
  
 The following legend is applicable only to US Government
 contracts under FAR:
  
                    RESTRICTED RIGHTS LEGEND
  
 Use, reproduction and disclosure by the US Government is
 subject to restrictions as set forth in subparagraphs (a)
 and (c) of the Commercial Computer Software - Restricted
 Rights clause in FAR 52.227-19.
  
 Gaussian, Inc.
 340 Quinnipiac St., Bldg. 40, Wallingford CT 06492
  
  
 ---------------------------------------------------------------
 Warning -- This program may not be used in any manner that
 competes with the business of Gaussian, Inc. or will provide
 assistance to any competitor of Gaussian, Inc.  The licensee
 of this program is prohibited from giving any competitor of
 Gaussian, Inc. access to this program.  By using this program,
 the user acknowledges that Gaussian, Inc. is engaged in the
 business of creating and licensing software in the field of
 computational chemistry and represents and warrants to the
 licensee that it is not a competitor of Gaussian, Inc. and that
 it will not use this program in any manner prohibited above.
 ---------------------------------------------------------------
  

 Cite this work as:
 Gaussian 16, Revision C.02,
 M. J. Frisch, G. W. Trucks, H. B. Schlegel, G. E. Scuseria, 
 M. A. Robb, J. R. Cheeseman, G. Scalmani, V. Barone, 
 G. A. Petersson, H. Nakatsuji, X. Li, M. Caricato, A. V. Marenich, 
 J. Bloino, B. G. Janesko, R. Gomperts, B. Mennucci, H. P. Hratchian, 
 J. V. Ortiz, A. F. Izmaylov, J. L. Sonnenberg, D. Williams-Young, 
 F. Ding, F. Lipparini, F. Egidi, J. Goings, B. Peng, A. Petrone, 
 T. Henderson, D. Ranasinghe, V. G. Zakrzewski, J. Gao, N. Rega, 
 G. Zheng, W. Liang, M. Hada, M. Ehara, K. Toyota, R. Fukuda, 
 J. Hasegawa, M. Ishida, T. Nakajima, Y. Honda, O. Kitao, H. Nakai, 
 T. Vreven, K. Throssell, J. A. Montgomery, Jr., J. E. Peralta, 
 F. Ogliaro, M. J. Bearpark, J. J. Heyd, E. N. Brothers, K. N. Kudin, 
 V. N. Staroverov, T. A. Keith, R. Kobayashi, J. Normand, 
 K. Raghavachari, A. P. Rendell, J. C. Burant, S. S. Iyengar, 
 J. Tomasi, M. Cossi, J. M. Millam, M. Klene, C. Adamo, R. Cammi, 
 J. W. Ochterski, R. L. Martin, K. Morokuma, O. Farkas, 
 J. B. Foresman, and D. J. Fox, Gaussian, Inc., Wallingford CT, 2019.
 
 ******************************************
 Gaussian 16:  ES64L-G16RevC.02  7-Dec-2021
                 4-Nov-2023 
 ******************************************
 %nprocshared=32
 Will use up to   32 processors via shared memory.
 %mem=128GB
 ------------------------------------------------------------
 # td=(nstates=150) b3lyp/6-311+g* scrf(smd, solvent=ethanol)
 ------------------------------------------------------------
 1/38=1,172=1/1;
 2/12=2,17=6,18=5,40=1/2;
 3/5=4,6=6,7=11,11=9,25=1,30=1,70=32201,72=4,74=-5/1,2,3,8;
 4//1;
 5/5=2,38=5,53=4/2;
 8/6=1,10=2,108=150/1;
 9/41=150,42=1,70=2/14;
 6/7=2,8=2,9=2,10=2/1;
 99/5=1,9=1/99;
 ---
 B-1
 ---
 Symbolic Z-matrix:
 Charge =  0 Multiplicity = 1
 C                    -13.19325  -1.96518   0.35751 
 C                    -14.15023  -1.3663   -0.66684 
 C                    -14.19793   0.14589  -0.46999 
 C                    -12.83989   0.78112  -0.26594 
 C                    -11.69919   0.06912  -0.02054 
 C                    -11.73425  -1.46329   0.19794 
 C                    -10.43464   0.80864   0.02792 
 C                    -9.1477    0.36849   0.05193 
 C                    -7.97098   1.21881   0.06402 
 C                    -6.73848   0.61877   0.06999 
 C                    -5.44585   1.23802   0.07821 
 C                    -4.28033   0.52598   0.08121 
 C                    -2.9426    1.06363   0.08601 
 C                    -1.88552   0.18504   0.0869 
 C                    -0.48836   0.47987   0.08838 
 C                     0.48836  -0.47988   0.08838 
 C                     1.88552  -0.18505   0.0869 
 C                     2.9426   -1.06364   0.08601 
 C                     4.28033  -0.52598   0.08121 
 C                     5.44585  -1.23802   0.07821 
 C                     6.73848  -0.61878   0.06999 
 C                     7.97098  -1.21882   0.06402 
 C                     9.1477   -0.36849   0.05193 
 C                     10.43464  -0.80864   0.02791 
 C                     11.69919  -0.06911  -0.02054 
 C                     11.73425   1.4633    0.19794 
 C                    -11.0146  -1.85387   1.51323 
 C                    -11.08758  -2.20926  -0.99638 
 C                    -12.87893   2.29364  -0.39889 
 C                     13.19324   1.96519   0.35753 
 C                     14.15024   1.36631  -0.66682 
 C                     14.19793  -0.14588  -0.46997 
 C                     12.83989  -0.78111  -0.26594 
 C                     11.01458   1.85387   1.51322 
 C                     11.08758   2.20926  -0.99639 
 C                     12.87893  -2.29364  -0.39888 
 C                     8.15656  -2.71718   0.0685 
 C                     2.76951  -2.56424   0.08879 
 C                    -2.7695    2.56423   0.08879 
 C                    -8.15656   2.71718   0.0685 
 H                    -13.55224  -1.70444   1.36372 
 H                    -13.19179  -3.06159   0.30296 
 H                    -15.15315  -1.79827  -0.56305 
 H                    -13.81309  -1.59776  -1.68519 
 H                    -14.83673   0.39264   0.39555 
 H                    -14.68517   0.6313   -1.32865 
 H                    -10.55321   1.88625  -0.00013 
 H                    -8.93157  -0.69442   0.04825 
 H                    -6.72719  -0.47229   0.0666 
 H                    -5.39419   2.32333   0.08055 
 H                    -4.35407  -0.56241   0.07851 
 H                    -2.13643  -0.87673   0.08526 
 H                    -0.17247   1.5217    0.08852 
 H                     0.17247  -1.52171   0.08852 
 H                     2.13644   0.87672   0.08527 
 H                     4.35407   0.5624    0.07851 
 H                     5.39419  -2.32334   0.08054 
 H                     6.72719   0.47229   0.06659 
 H                     8.93157   0.69442   0.04824 
 H                     10.55321  -1.88625  -0.00012 
 H                    -11.41656  -1.28058   2.35641 
 H                    -11.18397  -2.91813   1.72001 
 H                    -9.93616  -1.69087   1.48859 
 H                    -10.06227  -1.88498  -1.18781 
 H                    -11.06723  -3.28878  -0.80027 
 H                    -11.65314  -2.04558  -1.91992 
 H                    -13.91376   2.64896  -0.35064 
 H                    -12.32451   2.80958   0.39214 
 H                    -12.46878   2.63324  -1.36008 
 H                     13.19178   3.06159   0.30298 
 H                     13.55222   1.70445   1.36374 
 H                     15.15315   1.79828  -0.56302 
 H                     13.8131   1.59777  -1.68517 
 H                     14.83673  -0.39263   0.39557 
 H                     14.68518  -0.63129  -1.32863 
 H                     11.18393   2.91814   1.72 
 H                     9.93614   1.69087   1.48856 
 H                     11.41653   1.28059   2.3564 
 H                     10.06228   1.88498  -1.18783 
 H                     11.06723   3.28878  -0.80029 
 H                     11.65315   2.04558  -1.91993 
 H                     13.91377  -2.64895  -0.35064 
 H                     12.32452  -2.80958   0.39214 
 H                     12.46878  -2.63323  -1.36007 
 H                     8.74409  -3.03646   0.93873 
 H                     7.20915  -3.25795   0.09305 
 H                     8.70422  -3.04723  -0.82368 
 H                     3.24804  -3.01107   0.96953 
 H                     1.72147  -2.86803   0.09271 
 H                     3.24239  -3.01383  -0.79361 
 H                    -3.2424    3.01383  -0.7936 
 H                    -3.24802   3.01106   0.96955 
 H                    -1.72147   2.86802   0.09269 
 H                    -7.20914   3.25794   0.09306 
 H                    -8.70421   3.04723  -0.82368 
 H                    -8.74409   3.03646   0.93873 
 
 Stoichiometry    C40H56
 Framework group  C1[X(C40H56)]
 Deg. of freedom   282
 Full point group                 C1      NOp   1
 Largest Abelian subgroup         C1      NOp   1
 Largest concise Abelian subgroup C1      NOp   1
                         Standard orientation:                         
 ---------------------------------------------------------------------
 Center     Atomic      Atomic             Coordinates (Angstroms)
 Number     Number       Type             X           Y           Z
 ---------------------------------------------------------------------
      1          6           0       13.193247    1.965180    0.357514
      2          6           0       14.150234    1.366297   -0.666837
      3          6           0       14.197930   -0.145886   -0.469985
      4          6           0       12.839886   -0.781119   -0.265942
      5          6           0       11.699193   -0.069117   -0.020535
      6          6           0       11.734254    1.463294    0.197940
      7          6           0       10.434640   -0.808638    0.027915
      8          6           0        9.147698   -0.368486    0.051934
      9          6           0        7.970978   -1.218813    0.064023
     10          6           0        6.738479   -0.618773    0.069992
     11          6           0        5.445845   -1.238015    0.078209
     12          6           0        4.280328   -0.525977    0.081210
     13          6           0        2.942601   -1.063627    0.086009
     14          6           0        1.885522   -0.185039    0.086900
     15          6           0        0.488362   -0.479870    0.088382
     16          6           0       -0.488364    0.479879    0.088381
     17          6           0       -1.885523    0.185049    0.086901
     18          6           0       -2.942603    1.063636    0.086010
     19          6           0       -4.280330    0.525984    0.081210
     20          6           0       -5.445847    1.238022    0.078205
     21          6           0       -6.738480    0.618778    0.069986
     22          6           0       -7.970980    1.218816    0.064016
     23          6           0       -9.147699    0.368486    0.051926
     24          6           0      -10.434641    0.808636    0.027911
     25          6           0      -11.699193    0.069112   -0.020539
     26          6           0      -11.734248   -1.463299    0.197935
     27          6           0       11.014600    1.853868    1.513234
     28          6           0       11.087577    2.209256   -0.996377
     29          6           0       12.878927   -2.293643   -0.398885
     30          6           0      -13.193238   -1.965187    0.357525
     31          6           0      -14.150237   -1.366308   -0.666817
     32          6           0      -14.197934    0.145875   -0.469969
     33          6           0      -12.839889    0.781111   -0.265939
     34          6           0      -11.014576   -1.853870    1.513220
     35          6           0      -11.087582   -2.209257   -0.996389
     36          6           0      -12.878932    2.293635   -0.398883
     37          6           0       -8.156563    2.717180    0.068498
     38          6           0       -2.769507    2.564242    0.088788
     39          6           0        2.769504   -2.564233    0.088790
     40          6           0        8.156557   -2.717177    0.068503
     41          1           0       13.552240    1.704444    1.363722
     42          1           0       13.191791    3.061587    0.302962
     43          1           0       15.153148    1.798268   -0.563053
     44          1           0       13.813091    1.597755   -1.685187
     45          1           0       14.836732   -0.392637    0.395545
     46          1           0       14.685170   -0.631298   -1.328645
     47          1           0       10.553209   -1.886254   -0.000126
     48          1           0        8.931571    0.694424    0.048253
     49          1           0        6.727188    0.472294    0.066595
     50          1           0        5.394190   -2.323329    0.080545
     51          1           0        4.354073    0.562407    0.078511
     52          1           0        2.136434    0.876729    0.085263
     53          1           0        0.172471   -1.521700    0.088524
     54          1           0       -0.172472    1.521709    0.088521
     55          1           0       -2.136435   -0.876720    0.085267
     56          1           0       -4.354074   -0.562400    0.078514
     57          1           0       -5.394193    2.323335    0.080538
     58          1           0       -6.727188   -0.472289    0.066588
     59          1           0       -8.931568   -0.694423    0.048240
     60          1           0      -10.553213    1.886252   -0.000123
     61          1           0       11.416560    1.280584    2.356412
     62          1           0       11.183965    2.918133    1.720013
     63          1           0        9.936160    1.690871    1.488587
     64          1           0       10.062275    1.884980   -1.187807
     65          1           0       11.067226    3.288779   -0.800274
     66          1           0       11.653135    2.045583   -1.919919
     67          1           0       13.913764   -2.648960   -0.350635
     68          1           0       12.324510   -2.809583    0.392139
     69          1           0       12.468777   -2.633235   -1.360075
     70          1           0      -13.191780   -3.061594    0.302976
     71          1           0      -13.552222   -1.704450    1.363737
     72          1           0      -15.153149   -1.798281   -0.563022
     73          1           0      -13.813104   -1.597768   -1.685170
     74          1           0      -14.836727    0.392627    0.395567
     75          1           0      -14.685183    0.631285   -1.328625
     76          1           0      -11.183932   -2.918136    1.719999
     77          1           0       -9.936137   -1.690867    1.488558
     78          1           0      -11.416527   -1.280589    2.356403
     79          1           0      -10.062283   -1.884978   -1.187830
     80          1           0      -11.067226   -3.288781   -0.800288
     81          1           0      -11.653150   -2.045585   -1.919926
     82          1           0      -13.913771    2.648951   -0.350639
     83          1           0      -12.324521    2.809577    0.392144
     84          1           0      -12.468777    2.633229   -1.360071
     85          1           0       -8.744087    3.036457    0.938730
     86          1           0       -7.209146    3.257946    0.093047
     87          1           0       -8.704221    3.047232   -0.823677
     88          1           0       -3.248036    3.011075    0.969534
     89          1           0       -1.721470    2.868026    0.092705
     90          1           0       -3.242385    3.013831   -0.793611
     91          1           0        3.242396   -3.013825   -0.793600
     92          1           0        3.248019   -3.011063    0.969546
     93          1           0        1.721466   -2.868016    0.092692
     94          1           0        7.209140   -3.257941    0.093061
     95          1           0        8.704208   -3.047230   -0.823677
     96          1           0        8.744089   -3.036455    0.938730
 ---------------------------------------------------------------------
 Rotational constants (GHZ):           0.3478418           0.0099525           0.0097368
 Standard basis: 6-311+G(d) (5D, 7F)
 There are  1088 symmetry adapted cartesian basis functions of A   symmetry.
 There are  1048 symmetry adapted basis functions of A   symmetry.
  1048 basis functions,  1720 primitive gaussians,  1088 cartesian basis functions
   148 alpha electrons      148 beta electrons
       nuclear repulsion energy      3637.1617565307 Hartrees.
 NAtoms=   96 NActive=   96 NUniq=   96 SFac= 1.00D+00 NAtFMM=   60 NAOKFM=T Big=T
 Integral buffers will be    131072 words long.
 Regular integral format.
 Two-electron integral symmetry is turned on.
 ------------------------------------------------------------------------------
 Polarizable Continuum Model (PCM)
 =================================
 Model                : PCM.
 Atomic radii         : SMD-Coulomb.
 Polarization charges : Total charges.
 Charge compensation  : None.
 Solution method      : On-the-fly selection.
 Cavity type          : VdW (van der Waals Surface) (Alpha=1.000).
 Cavity algorithm     : GePol (No added spheres)
                        Default sphere list used, NSphG=   96.
                        Lebedev-Laikov grids with approx.  5.0 points / Ang**2.
                        Smoothing algorithm: York/Karplus (Gamma=1.0000).
                        Polarization charges: spherical gaussians, with
                                              point-specific exponents (IZeta= 3).
                        Self-potential: point-specific (ISelfS= 7).
                        Self-field    : sphere-specific E.n sum rule (ISelfD= 2).
 Solvent              : Ethanol, Eps=  24.852000 Eps(inf)=   1.852593
 ------------------------------------------------------------------------------
 ------------------------------------------------------------------------------
 Atomic radii for non-electrostatic terms: SMD-CDS.
 ------------------------------------------------------------------------------
 Nuclear repulsion after PCM non-electrostatic terms =     3637.1521877144 Hartrees.
 One-electron integrals computed using PRISM.
 NBasis=  1048 RedAO= T EigKep=  1.20D-06  NBF=  1048
 NBsUse=  1033 1.00D-06 EigRej=  8.78D-07 NBFU=  1033
 ExpMin= 4.38D-02 ExpMax= 4.56D+03 ExpMxC= 6.82D+02 IAcc=3 IRadAn=         5 AccDes= 0.00D+00
 Harris functional with IExCor=  402 and IRadAn=       5 diagonalized for initial guess.
 HarFok:  IExCor=  402 AccDes= 0.00D+00 IRadAn=         5 IDoV= 1 UseB2=F ITyADJ=14
 ICtDFT=  3500011 ScaDFX=  1.000000  1.000000  1.000000  1.000000
 FoFCou: FMM=F IPFlag=           0 FMFlag=      100000 FMFlg1=        2001
         NFxFlg=           0 DoJE=T BraDBF=F KetDBF=T FulRan=T
         wScrn=  0.000000 ICntrl=       500 IOpCl=  0 I1Cent=   200000004 NGrid=           0
         NMat0=    1 NMatS0=      1 NMatT0=    0 NMatD0=    1 NMtDS0=    0 NMtDT0=    0
 Petite list used in FoFCou.
 Requested convergence on RMS density matrix=1.00D-08 within 128 cycles.
 Requested convergence on MAX density matrix=1.00D-06.
 Requested convergence on             energy=1.00D-06.
 No special actions if energy rises.
 Inv3:  Mode=1 IEnd=   125194800.
 Iteration    1 A*A^-1 deviation from unit magnitude is 3.33D-15 for   3227.
 Iteration    1 A*A^-1 deviation from orthogonality  is 2.44D-15 for   5685    374.
 Iteration    1 A^-1*A deviation from unit magnitude is 3.33D-15 for   3247.
 Iteration    1 A^-1*A deviation from orthogonality  is 4.00D-15 for   4759   1478.
 Error on total polarization charges =  0.12682
 SCF Done:  E(RB3LYP) =  -1558.26024495     A.U. after   14 cycles
            NFock= 14  Conv=0.44D-08     -V/T= 2.0049
 SMD-CDS (non-electrostatic) energy       (kcal/mol) =      -6.00
 (included in total energy above)
 DoSCS=F DFT=T ScalE2(SS,OS)=  1.000000  1.000000
 ExpMin= 4.38D-02 ExpMax= 4.56D+03 ExpMxC= 6.82D+02 IAcc=3 IRadAn=         5 AccDes= 0.00D+00
 HarFok:  IExCor=  205 AccDes= 0.00D+00 IRadAn=         5 IDoV=-2 UseB2=F ITyADJ=14
 ICtDFT= 12500011 ScaDFX=  1.000000  1.000000  1.000000  1.000000
 GSVD:  LWork=       -1920 too small for GESVD, short by        8600 words or        8600 for optimal perf.
 Range of M.O.s used for correlation:    41  1033
 NBasis=  1048 NAE=   148 NBE=   148 NFC=    40 NFV=     0
 NROrb=    993 NOA=   108 NOB=   108 NVA=   885 NVB=   885

 **** Warning!!: The largest alpha MO coefficient is  0.13738116D+03


 **** Warning!!: The smallest alpha delta epsilon is  0.76810477D-01

 NEqPCM:  Using non-equilibrium solvation (IEInf=1, Eps=  24.8520, EpsInf=   1.8526)
 Inv3:  Mode=1 IEnd=   125194800.
 Iteration    1 A*A^-1 deviation from unit magnitude is 3.55D-15 for    760.
 Iteration    1 A*A^-1 deviation from orthogonality  is 2.11D-15 for   5206    332.
 Iteration    1 A^-1*A deviation from unit magnitude is 3.55D-15 for   4687.
 Iteration    1 A^-1*A deviation from orthogonality  is 1.93D-15 for   4428   2540.
 Orbital symmetries:
       Occupied  (A) (A) (A) (A) (A) (A) (A) (A) (A) (A) (A) (A)
                 (A) (A) (A) (A) (A) (A) (A) (A) (A) (A) (A) (A)
                 (A) (A) (A) (A) (A) (A) (A) (A) (A) (A) (A) (A)
                 (A) (A) (A) (A) (A) (A) (A) (A) (A) (A) (A) (A)
                 (A) (A) (A) (A) (A) (A) (A) (A) (A) (A) (A) (A)
                 (A) (A) (A) (A) (A) (A) (A) (A) (A) (A) (A) (A)
                 (A) (A) (A) (A) (A) (A) (A) (A) (A) (A) (A) (A)
                 (A) (A) (A) (A) (A) (A) (A) (A) (A) (A) (A) (A)
                 (A) (A) (A) (A) (A) (A) (A) (A) (A) (A) (A) (A)
                 (A) (A) (A) (A) (A) (A) (A) (A) (A) (A) (A) (A)
                 (A) (A) (A) (A) (A) (A) (A) (A) (A) (A) (A) (A)
                 (A) (A) (A) (A) (A) (A) (A) (A) (A) (A) (A) (A)
                 (A) (A) (A) (A)
       Virtual   (A) (A) (A) (A) (A) (A) (A) (A) (A) (A) (A) (A)
                 (A) (A) (A) (A) (A) (A) (A) (A) (A) (A) (A) (A)
                 (A) (A) (A) (A) (A) (A) (A) (A) (A) (A) (A) (A)
                 (A) (A) (A) (A) (A) (A) (A) (A) (A) (A) (A) (A)
                 (A) (A) (A) (A) (A) (A) (A) (A) (A) (A) (A) (A)
                 (A) (A) (A) (A) (A) (A) (A) (A) (A) (A) (A) (A)
                 (A) (A) (A) (A) (A) (A) (A) (A) (A) (A) (A) (A)
                 (A) (A) (A) (A) (A) (A) (A) (A) (A) (A) (A) (A)
                 (A) (A) (A) (A) (A) (A) (A) (A) (A) (A) (A) (A)
                 (A) (A) (A) (A) (A) (A) (A) (A) (A) (A) (A) (A)
                 (A) (A) (A) (A) (A) (A) (A) (A) (A) (A) (A) (A)
                 (A) (A) (A) (A) (A) (A) (A) (A) (A) (A) (A) (A)
                 (A) (A) (A) (A) (A) (A) (A) (A) (A) (A) (A) (A)
                 (A) (A) (A) (A) (A) (A) (A) (A) (A) (A) (A) (A)
                 (A) (A) (A) (A) (A) (A) (A) (A) (A) (A) (A) (A)
                 (A) (A) (A) (A) (A) (A) (A) (A) (A) (A) (A) (A)
                 (A) (A) (A) (A) (A) (A) (A) (A) (A) (A) (A) (A)
                 (A) (A) (A) (A) (A) (A) (A) (A) (A) (A) (A) (A)
                 (A) (A) (A) (A) (A) (A) (A) (A) (A) (A) (A) (A)
                 (A) (A) (A) (A) (A) (A) (A) (A) (A) (A) (A) (A)
                 (A) (A) (A) (A) (A) (A) (A) (A) (A) (A) (A) (A)
                 (A) (A) (A) (A) (A) (A) (A) (A) (A) (A) (A) (A)
                 (A) (A) (A) (A) (A) (A) (A) (A) (A) (A) (A) (A)
                 (A) (A) (A) (A) (A) (A) (A) (A) (A) (A) (A) (A)
                 (A) (A) (A) (A) (A) (A) (A) (A) (A) (A) (A) (A)
                 (A) (A) (A) (A) (A) (A) (A) (A) (A) (A) (A) (A)
                 (A) (A) (A) (A) (A) (A) (A) (A) (A) (A) (A) (A)
                 (A) (A) (A) (A) (A) (A) (A) (A) (A) (A) (A) (A)
                 (A) (A) (A) (A) (A) (A) (A) (A) (A) (A) (A) (A)
                 (A) (A) (A) (A) (A) (A) (A) (A) (A) (A) (A) (A)
                 (A) (A) (A) (A) (A) (A) (A) (A) (A) (A) (A) (A)
                 (A) (A) (A) (A) (A) (A) (A) (A) (A) (A) (A) (A)
                 (A) (A) (A) (A) (A) (A) (A) (A) (A) (A) (A) (A)
                 (A) (A) (A) (A) (A) (A) (A) (A) (A) (A) (A) (A)
                 (A) (A) (A) (A) (A) (A) (A) (A) (A) (A) (A) (A)
                 (A) (A) (A) (A) (A) (A) (A) (A) (A) (A) (A) (A)
                 (A) (A) (A) (A) (A) (A) (A) (A) (A) (A) (A) (A)
                 (A) (A) (A) (A) (A) (A) (A) (A) (A) (A) (A) (A)
                 (A) (A) (A) (A) (A) (A) (A) (A) (A) (A) (A) (A)
                 (A) (A) (A) (A) (A) (A) (A) (A) (A) (A) (A) (A)
                 (A) (A) (A) (A) (A) (A) (A) (A) (A) (A) (A) (A)
                 (A) (A) (A) (A) (A) (A) (A) (A) (A) (A) (A) (A)
                 (A) (A) (A) (A) (A) (A) (A) (A) (A) (A) (A) (A)
                 (A) (A) (A) (A) (A) (A) (A) (A) (A) (A) (A) (A)
                 (A) (A) (A) (A) (A) (A) (A) (A) (A) (A) (A) (A)
                 (A) (A) (A) (A) (A) (A) (A) (A) (A) (A) (A) (A)
                 (A) (A) (A) (A) (A) (A) (A) (A) (A) (A) (A) (A)
                 (A) (A) (A) (A) (A) (A) (A) (A) (A) (A) (A) (A)
                 (A) (A) (A) (A) (A) (A) (A) (A) (A) (A) (A) (A)
                 (A) (A) (A) (A) (A) (A) (A) (A) (A) (A) (A) (A)
                 (A) (A) (A) (A) (A) (A) (A) (A) (A) (A) (A) (A)
                 (A) (A) (A) (A) (A) (A) (A) (A) (A) (A) (A) (A)
                 (A) (A) (A) (A) (A) (A) (A) (A) (A) (A) (A) (A)
                 (A) (A) (A) (A) (A) (A) (A) (A) (A) (A) (A) (A)
                 (A) (A) (A) (A) (A) (A) (A) (A) (A) (A) (A) (A)
                 (A) (A) (A) (A) (A) (A) (A) (A) (A) (A) (A) (A)
                 (A) (A) (A) (A) (A) (A) (A) (A) (A) (A) (A) (A)
                 (A) (A) (A) (A) (A) (A) (A) (A) (A) (A) (A) (A)
                 (A) (A) (A) (A) (A) (A) (A) (A) (A) (A) (A) (A)
                 (A) (A) (A) (A) (A) (A) (A) (A) (A) (A) (A) (A)
                 (A) (A) (A) (A) (A) (A) (A) (A) (A) (A) (A) (A)
                 (A) (A) (A) (A) (A) (A) (A) (A) (A) (A) (A) (A)
                 (A) (A) (A) (A) (A) (A) (A) (A) (A) (A) (A) (A)
                 (A) (A) (A) (A) (A) (A) (A) (A) (A) (A) (A) (A)
                 (A) (A) (A) (A) (A) (A) (A) (A) (A) (A) (A) (A)
                 (A) (A) (A) (A) (A) (A) (A) (A) (A) (A) (A) (A)
                 (A) (A) (A) (A) (A) (A) (A) (A) (A) (A) (A) (A)
                 (A) (A) (A) (A) (A) (A) (A) (A) (A) (A) (A) (A)
                 (A) (A) (A) (A) (A) (A) (A) (A) (A) (A) (A) (A)
                 (A) (A) (A) (A) (A) (A) (A) (A) (A) (A) (A) (A)
                 (A) (A) (A) (A) (A) (A) (A) (A) (A) (A) (A) (A)
                 (A) (A) (A) (A) (A) (A) (A) (A) (A) (A) (A) (A)
                 (A) (A) (A) (A) (A) (A) (A) (A) (A) (A) (A) (A)
                 (A) (A) (A) (A) (A) (A) (A) (A) (A)
   600 initial guesses have been made.
 Convergence on wavefunction:    0.001000000000000
 Iteration     1 Dimension   600 NMult     0 NNew    600
 CISAX will form   160 AO SS matrices at one time.
 New state      3 was old state      4
 New state      4 was old state      3
 New state      6 was old state      7
 New state      7 was old state      8
 New state      8 was old state     10
 New state      9 was old state     12
 New state     10 was old state     13
 New state     11 was old state      9
 New state     12 was old state     14
 New state     13 was old state     15
 New state     14 was old state     17
 New state     15 was old state     31
 New state     16 was old state     18
 New state     17 was old state     16
 New state     18 was old state     22
 New state     19 was old state     20
 New state     20 was old state     21
 New state     21 was old state     26
 New state     22 was old state     25
 New state     23 was old state     19
 New state     24 was old state     27
 New state     25 was old state     81
 New state     26 was old state     29
 New state     27 was old state     28
 New state     28 was old state     30
 New state     29 was old state     32
 New state     30 was old state     24
 New state     31 was old state     33
 New state     32 was old state     35
 New state     33 was old state     34
 New state     34 was old state     37
 New state     35 was old state     11
 New state     36 was old state     44
 New state     37 was old state     36
 New state     38 was old state     39
 New state     39 was old state     38
 New state     40 was old state     42
 New state     42 was old state     43
 New state     43 was old state     46
 New state     44 was old state     50
 New state     46 was old state     52
 New state     47 was old state     48
 New state     48 was old state     47
 New state     49 was old state     51
 New state     50 was old state     49
 New state     51 was old state     56
 New state     52 was old state     55
 New state     54 was old state     58
 New state     55 was old state     62
 New state     56 was old state     60
 New state     57 was old state     61
 New state     58 was old state     59
 New state     59 was old state     57
 New state     60 was old state     69
 New state     61 was old state     67
 New state     62 was old state     64
 New state     64 was old state     65
 New state     65 was old state     66
 New state     66 was old state     54
 New state     67 was old state     72
 New state     68 was old state     75
 New state     69 was old state     68
 New state     71 was old state     73
 New state     72 was old state     79
 New state     73 was old state     74
 New state     74 was old state    163
 New state     75 was old state     78
 New state     76 was old state     80
 New state     77 was old state     82
 New state     78 was old state    114
 New state     79 was old state     77
 New state     80 was old state     83
 New state     81 was old state     88
 New state     82 was old state     76
 New state     83 was old state     84
 New state     84 was old state     86
 New state     85 was old state     90
 New state     86 was old state    120
 New state     87 was old state     85
 New state     88 was old state     89
 New state     89 was old state     87
 New state     90 was old state     95
 New state     92 was old state     93
 New state     93 was old state     96
 New state     94 was old state    107
 New state     95 was old state    100
 New state     96 was old state     97
 New state     97 was old state     94
 New state     99 was old state    106
 New state    100 was old state    105
 New state    101 was old state     99
 New state    102 was old state    109
 New state    103 was old state    108
 New state    104 was old state     92
 New state    105 was old state    101
 New state    106 was old state    104
 New state    107 was old state    112
 New state    108 was old state    116
 New state    109 was old state    110
 New state    110 was old state    123
 New state    111 was old state    139
 New state    112 was old state    119
 New state    113 was old state    115
 New state    114 was old state    113
 New state    115 was old state    117
 New state    116 was old state    118
 New state    117 was old state    102
 New state    118 was old state    124
 New state    119 was old state    122
 New state    120 was old state    125
 New state    121 was old state    127
 New state    122 was old state    103
 New state    123 was old state    121
 New state    124 was old state    126
 New state    125 was old state    132
 New state    126 was old state    129
 New state    127 was old state    131
 New state    128 was old state    130
 New state    129 was old state    134
 New state    130 was old state    128
 New state    131 was old state    137
 New state    132 was old state    142
 New state    133 was old state    135
 New state    134 was old state    155
 New state    135 was old state    140
 New state    136 was old state    174
 New state    137 was old state    136
 New state    138 was old state    147
 New state    139 was old state    138
 New state    140 was old state    141
 New state    141 was old state    146
 New state    142 was old state    145
 New state    144 was old state    157
 New state    145 was old state    133
 New state    146 was old state    151
 New state    147 was old state    144
 New state    148 was old state    150
 New state    150 was old state    152
 Iteration     2 Dimension   900 NMult   600 NNew    300
 New state      3 was old state      4
 New state      4 was old state      3
 New state      7 was old state      8
 New state      8 was old state      7
 New state      9 was old state     11
 New state     10 was old state     13
 New state     11 was old state      9
 New state     12 was old state     10
 New state     13 was old state     12
 New state     15 was old state     18
 New state     16 was old state     15
 New state     18 was old state     16
 New state     21 was old state     23
 New state     22 was old state     35
 New state     23 was old state     21
 New state     24 was old state     22
 New state     25 was old state     24
 New state     26 was old state     25
 New state     28 was old state     26
 New state     29 was old state     28
 New state     31 was old state     29
 New state     32 was old state     31
 New state     33 was old state     39
 New state     34 was old state     32
 New state     35 was old state     34
 New state     36 was old state     33
 New state     37 was old state     36
 New state     38 was old state     37
 New state     39 was old state     38
 New state     42 was old state     51
 New state     43 was old state     44
 New state     44 was old state     42
 New state     45 was old state     43
 New state     46 was old state     45
 New state     49 was old state     46
 New state     50 was old state     68
 New state     51 was old state     49
 New state     52 was old state     50
 New state     54 was old state     52
 New state     56 was old state     54
 New state     57 was old state     56
 New state     58 was old state     57
 New state     60 was old state     58
 New state     62 was old state     60
 New state     63 was old state     62
 New state     64 was old state     66
 New state     65 was old state     63
 New state     66 was old state     64
 New state     67 was old state     65
 New state     68 was old state     70
 New state     69 was old state     67
 New state     70 was old state     69
 New state     72 was old state     79
 New state     73 was old state     72
 New state     74 was old state     75
 New state     75 was old state     74
 New state     77 was old state     73
 New state     79 was old state     77
 New state     80 was old state     82
 New state     81 was old state     98
 New state     82 was old state     80
 New state     84 was old state     81
 New state     85 was old state     90
 New state     87 was old state     84
 New state     88 was old state     85
 New state     89 was old state     87
 New state     90 was old state     88
 New state     91 was old state     89
 New state     92 was old state     95
 New state     93 was old state     91
 New state     94 was old state     92
 New state     95 was old state     94
 New state     96 was old state    105
 New state     97 was old state     93
 New state     98 was old state     96
 New state     99 was old state     97
 New state    100 was old state     99
 New state    101 was old state    102
 New state    102 was old state    101
 New state    104 was old state    100
 New state    105 was old state    109
 New state    106 was old state    104
 New state    107 was old state    106
 New state    108 was old state    119
 New state    109 was old state    107
 New state    110 was old state    108
 New state    111 was old state    110
 New state    112 was old state    111
 New state    113 was old state    112
 New state    114 was old state    115
 New state    115 was old state    113
 New state    117 was old state    122
 New state    118 was old state    114
 New state    119 was old state    118
 New state    120 was old state    117
 New state    121 was old state    120
 New state    122 was old state    121
 New state    123 was old state    132
 New state    124 was old state    126
 New state    125 was old state    123
 New state    126 was old state    124
 New state    127 was old state    125
 New state    128 was old state    129
 New state    129 was old state    128
 New state    130 was old state    135
 New state    131 was old state    127
 New state    132 was old state    138
 New state    133 was old state    130
 New state    134 was old state    142
 New state    135 was old state    131
 New state    137 was old state    134
 New state    138 was old state    133
 New state    140 was old state    137
 New state    141 was old state    140
 New state    142 was old state    144
 New state    143 was old state    141
 New state    144 was old state    143
 New state    145 was old state    149
 New state    146 was old state    145
 New state    148 was old state    146
 New state    149 was old state    151
 New state    150 was old state    148
 Iteration     3 Dimension  1200 NMult   900 NNew    300
 New state     14 was old state     15
 New state     15 was old state     14
 New state     42 was old state     43
 New state     43 was old state     42
 Iteration     4 Dimension  1494 NMult  1200 NNew    294
 Iteration     5 Dimension  1572 NMult  1494 NNew     78
 ***********************************************************************
 Excited states from <AA,BB:AA,BB> singles matrix:
 ***********************************************************************
 
 Ground to excited state transition densities written to RWF  633
 Ground to excited state transition electric dipole moments (Au):
       state          X           Y           Z        Dip. S.      Osc.
         1         9.4772     -1.1846      0.0000     91.2199      4.3119
         2        -0.0000     -0.0000     -0.0470      0.0022      0.0001
         3        -0.0000      0.0000      0.1772      0.0314      0.0023
         4         0.9428     -0.5453      0.0000      1.1862      0.0903
         5        -1.4411      0.3980      0.0000      2.2353      0.1883
         6         0.0000      0.0000     -0.0012      0.0000      0.0000
         7        -1.8310     -0.6843      0.0000      3.8209      0.3558
         8        -0.0000     -0.0000     -0.0339      0.0011      0.0001
         9        -0.0000      0.0000      0.1007      0.0101      0.0010
        10        -0.6872     -0.2814     -0.0000      0.5515      0.0573
        11         0.0000     -0.0000     -0.1980      0.0392      0.0041
        12         0.1859      0.0393     -0.0000      0.0361      0.0038
        13         0.0000     -0.0000     -0.0454      0.0021      0.0002
        14         0.0000     -0.0000     -0.2141      0.0458      0.0051
        15        -0.0812     -0.0090     -0.0000      0.0067      0.0007
        16        -0.0394     -0.0159     -0.0000      0.0018      0.0002
        17        -0.1454      0.0536     -0.0000      0.0240      0.0027
        18         0.0000      0.0000     -0.1906      0.0363      0.0041
        19         0.1414     -0.0215     -0.0000      0.0204      0.0024
        20         0.0000      0.0000      0.0448      0.0020      0.0002
        21         0.9374     -0.5077     -0.0000      1.1363      0.1350
        22        -0.0000      0.0000      0.0896      0.0080      0.0010
        23        -0.0827      0.0473      0.0000      0.0091      0.0011
        24         0.0000      0.0000     -0.0179      0.0003      0.0000
        25         0.1268      0.2914      0.0000      0.1010      0.0122
        26         0.0176      0.1142     -0.0000      0.0133      0.0016
        27        -0.0000     -0.0000     -0.0234      0.0005      0.0001
        28         0.0000     -0.0000     -0.0321      0.0010      0.0001
        29         0.1362     -0.0373     -0.0000      0.0199      0.0024
        30         0.0465      0.0961      0.0000      0.0114      0.0014
        31         0.0000     -0.0000     -0.0466      0.0022      0.0003
        32         0.0000     -0.0000      0.0115      0.0001      0.0000
        33         0.2839     -0.4063     -0.0000      0.2457      0.0309
        34        -0.0254      0.0379      0.0000      0.0021      0.0003
        35         0.0000      0.0000      0.0367      0.0013      0.0002
        36        -0.1400      0.1353      0.0000      0.0379      0.0048
        37        -0.0070     -0.1929     -0.0000      0.0372      0.0048
        38        -0.0000     -0.0000     -0.0134      0.0002      0.0000
        39         0.0000     -0.0000      0.0257      0.0007      0.0001
        40         0.0000     -0.0000      0.0348      0.0012      0.0002
        41         0.0824     -0.0255     -0.0000      0.0074      0.0010
        42         0.3168     -0.2284      0.0000      0.1526      0.0199
        43        -0.0001      0.0000      0.0177      0.0003      0.0000
        44        -0.1537      0.0749      0.0000      0.0292      0.0038
        45        -0.0000      0.0000     -0.0587      0.0034      0.0005
        46         0.0000     -0.0001     -0.0040      0.0000      0.0000
        47        -0.1082      0.1542      0.0000      0.0355      0.0047
        48         0.0000      0.0000      0.0443      0.0020      0.0003
        49        -0.0001      0.0001     -0.1021      0.0104      0.0014
        50         0.1874     -0.1526     -0.0000      0.0584      0.0078
        51        -0.0042      0.0416      0.0000      0.0017      0.0002
        52         0.0000     -0.0000      0.0981      0.0096      0.0013
        53        -0.0000      0.0000     -0.0010      0.0000      0.0000
        54        -0.1078     -0.0445     -0.0000      0.0136      0.0018
        55         0.0000      0.0000      0.0718      0.0052      0.0007
        56         0.3176      0.1926     -0.0000      0.1379      0.0187
        57         0.0000     -0.0000     -0.0465      0.0022      0.0003
        58         0.0668      0.0473     -0.0000      0.0067      0.0009
        59        -0.0000     -0.0000      0.0350      0.0012      0.0002
        60        -0.0347      0.0014     -0.0000      0.0012      0.0002
        61        -0.0000     -0.0000      0.0440      0.0019      0.0003
        62        -0.0241      0.1059      0.0000      0.0118      0.0016
        63        -0.0000      0.0000     -0.0369      0.0014      0.0002
        64        -0.0000     -0.0000     -0.1303      0.0170      0.0024
        65        -0.0276     -0.0030      0.0000      0.0008      0.0001
        66         0.0000     -0.0000     -0.0504      0.0025      0.0004
        67        -0.0467      0.0560      0.0000      0.0053      0.0007
        68         0.0000     -0.0000      0.1112      0.0124      0.0017
        69        -0.0168     -0.0312     -0.0000      0.0013      0.0002
        70        -0.2198     -0.1182     -0.0000      0.0623      0.0088
        71         0.0000     -0.0000     -0.0279      0.0008      0.0001
        72         0.0880     -0.1519     -0.0000      0.0308      0.0044
        73         0.0000      0.0000     -0.0164      0.0003      0.0000
        74         0.0000      0.0001     -0.0005      0.0000      0.0000
        75        -0.0828     -0.2353     -0.0000      0.0622      0.0089
        76        -0.0868     -0.0387      0.0000      0.0090      0.0013
        77         0.0000      0.0000      0.0693      0.0048      0.0007
        78         0.0132     -0.0271      0.0000      0.0009      0.0001
        79        -0.0000     -0.0000     -0.1066      0.0114      0.0016
        80         0.0050     -0.0016     -0.0000      0.0000      0.0000
        81        -0.0000     -0.0000      0.0818      0.0067      0.0010
        82        -0.0088     -0.0141      0.0000      0.0003      0.0000
        83         0.1355     -0.0102     -0.0000      0.0185      0.0027
        84         0.0000     -0.0000      0.0849      0.0072      0.0011
        85         0.0214      0.2391      0.0000      0.0576      0.0084
        86         0.0000      0.0000     -0.0181      0.0003      0.0000
        87        -0.0389     -0.0268      0.0000      0.0022      0.0003
        88        -0.0006      0.0686      0.0000      0.0047      0.0007
        89         0.0000     -0.0000      0.0035      0.0000      0.0000
        90        -0.0000      0.0000      0.0587      0.0034      0.0005
        91         0.0000     -0.0000      0.0185      0.0003      0.0001
        92        -0.0203      0.1500      0.0000      0.0229      0.0034
        93         0.0000      0.0000      0.0180      0.0003      0.0000
        94         0.0017     -0.0281     -0.0000      0.0008      0.0001
        95        -0.1034      0.0799     -0.0000      0.0171      0.0025
        96        -0.2094      0.1738     -0.0000      0.0741      0.0110
        97         0.0000     -0.0000     -0.0353      0.0012      0.0002
        98         0.0000     -0.0000     -0.0506      0.0026      0.0004
        99         0.0054     -0.0663     -0.0000      0.0044      0.0007
       100        -0.0151      0.0134      0.0000      0.0004      0.0001
       101        -0.0000     -0.0000     -0.0289      0.0008      0.0001
       102        -0.1791      0.0062     -0.0000      0.0321      0.0048
       103        -0.0000     -0.0000     -0.0116      0.0001      0.0000
       104        -0.0000     -0.0000      0.0092      0.0001      0.0000
       105        -0.0000      0.0000      0.0566      0.0032      0.0005
       106         0.1035     -0.0606     -0.0000      0.0144      0.0022
       107        -0.0000      0.0000     -0.0489      0.0024      0.0004
       108         0.0000     -0.0000      0.0522      0.0027      0.0004
       109        -0.0546      0.1544      0.0000      0.0268      0.0041
       110        -0.0063      0.0178     -0.0000      0.0004      0.0001
       111        -0.0000      0.0000     -0.0068      0.0000      0.0000
       112         0.1078     -0.0262      0.0000      0.0123      0.0019
       113         0.1803      0.0356     -0.0000      0.0338      0.0052
       114        -0.0000      0.0000      0.0659      0.0043      0.0007
       115        -0.4188      0.3450     -0.0000      0.2944      0.0453
       116        -0.0493     -0.0265     -0.0000      0.0031      0.0005
       117         0.0063      0.0861      0.0000      0.0074      0.0011
       118        -0.0000     -0.0000      0.0074      0.0001      0.0000
       119        -0.2525      0.3282     -0.0000      0.1714      0.0265
       120         0.0000     -0.0000     -0.1149      0.0132      0.0020
       121        -0.2175      0.1416     -0.0000      0.0674      0.0104
       122        -0.0000      0.0000      0.0226      0.0005      0.0001
       123        -0.0000      0.0000     -0.0250      0.0006      0.0001
       124         0.3057     -0.3521     -0.0000      0.2174      0.0338
       125         0.0000     -0.0000      0.1693      0.0287      0.0045
       126        -0.0700      0.0463      0.0000      0.0070      0.0011
       127        -0.0000      0.0000      0.0476      0.0023      0.0004
       128        -0.0848      0.1488     -0.0000      0.0293      0.0046
       129        -0.0000      0.0000     -0.0388      0.0015      0.0002
       130        -0.0321      0.3510      0.0000      0.1242      0.0195
       131         0.0000      0.0000      0.0378      0.0014      0.0002
       132        -0.0344     -0.2503      0.0000      0.0638      0.0101
       133        -0.0664      0.1311      0.0000      0.0216      0.0034
       134         0.0556      0.1335     -0.0000      0.0209      0.0033
       135         0.0000      0.0000      0.0672      0.0045      0.0007
       136        -0.0262      0.1026      0.0000      0.0112      0.0018
       137         0.0000     -0.0001      0.0483      0.0023      0.0004
       138         0.0719     -0.1967     -0.0000      0.0439      0.0070
       139         0.0000      0.0000      0.0576      0.0033      0.0005
       140        -0.0047      0.1083      0.0000      0.0118      0.0019
       141         0.0000      0.0000      0.0313      0.0010      0.0002
       142         0.1801      0.2568     -0.0000      0.0984      0.0158
       143        -0.0000     -0.0000     -0.0667      0.0044      0.0007
       144        -0.0000     -0.0000      0.0158      0.0003      0.0000
       145         0.0000      0.0000      0.0247      0.0006      0.0001
       146         0.0255     -0.0343     -0.0000      0.0018      0.0003
       147         0.0507      0.0888      0.0000      0.0105      0.0017
       148        -0.0000     -0.0000      0.0236      0.0006      0.0001
       149        -0.0000     -0.0000     -0.0525      0.0028      0.0004
       150         0.0000      0.0000      0.0567      0.0032      0.0005
 Ground to excited state transition velocity dipole moments (Au):
       state          X           Y           Z        Dip. S.      Osc.
         1        -0.6584      0.0814     -0.0000      0.4401      4.1382
         2         0.0000     -0.0000      0.0042      0.0000      0.0001
         3         0.0000     -0.0000     -0.0194      0.0004      0.0023
         4        -0.1042      0.0624     -0.0000      0.0147      0.0860
         5         0.1786     -0.0504     -0.0000      0.0344      0.1817
         6        -0.0000     -0.0000      0.0002      0.0000      0.0000
         7         0.2519      0.0910     -0.0000      0.0717      0.3424
         8         0.0000     -0.0000      0.0049      0.0000      0.0001
         9         0.0000     -0.0000     -0.0152      0.0002      0.0010
        10         0.1062      0.0421      0.0000      0.0130      0.0558
        11        -0.0000      0.0000      0.0285      0.0008      0.0034
        12        -0.0286     -0.0050     -0.0000      0.0008      0.0035
        13        -0.0000      0.0000      0.0103      0.0001      0.0004
        14        -0.0000      0.0000      0.0345      0.0012      0.0048
        15         0.0130      0.0013      0.0000      0.0002      0.0007
        16         0.0066      0.0024      0.0000      0.0000      0.0002
        17         0.0236     -0.0100      0.0000      0.0007      0.0026
        18        -0.0000      0.0000      0.0337      0.0011      0.0044
        19        -0.0242      0.0028     -0.0000      0.0006      0.0023
        20        -0.0000      0.0000     -0.0071      0.0001      0.0002
        21        -0.1629      0.0913     -0.0000      0.0349      0.1304
        22        -0.0000     -0.0000     -0.0152      0.0002      0.0009
        23         0.0143     -0.0091      0.0000      0.0003      0.0011
        24        -0.0000     -0.0000      0.0033      0.0000      0.0000
        25        -0.0215     -0.0514     -0.0000      0.0031      0.0114
        26        -0.0029     -0.0202      0.0000      0.0004      0.0015
        27         0.0000      0.0000      0.0063      0.0000      0.0001
        28        -0.0000      0.0000      0.0030      0.0000      0.0000
        29        -0.0240      0.0077     -0.0000      0.0006      0.0023
        30        -0.0075     -0.0170     -0.0000      0.0003      0.0013
        31        -0.0000      0.0000      0.0070      0.0000      0.0002
        32        -0.0000     -0.0000     -0.0024      0.0000      0.0000
        33        -0.0548      0.0775     -0.0000      0.0090      0.0318
        34         0.0052     -0.0081     -0.0000      0.0001      0.0003
        35        -0.0000     -0.0000     -0.0067      0.0000      0.0002
        36         0.0264     -0.0271     -0.0000      0.0014      0.0050
        37         0.0005      0.0366      0.0000      0.0013      0.0046
        38         0.0000      0.0000      0.0053      0.0000      0.0001
        39         0.0000      0.0000     -0.0062      0.0000      0.0001
        40        -0.0000      0.0000     -0.0056      0.0000      0.0001
        41        -0.0150      0.0068     -0.0000      0.0003      0.0009
        42        -0.0612      0.0450     -0.0000      0.0058      0.0196
        43         0.0000     -0.0000     -0.0026      0.0000      0.0000
        44         0.0295     -0.0148     -0.0000      0.0011      0.0037
        45         0.0000     -0.0000      0.0108      0.0001      0.0004
        46        -0.0000      0.0000     -0.0008      0.0000      0.0000
        47         0.0226     -0.0297     -0.0000      0.0014      0.0047
        48         0.0000     -0.0000     -0.0080      0.0001      0.0002
        49         0.0000     -0.0000      0.0191      0.0004      0.0012
        50        -0.0381      0.0315      0.0000      0.0024      0.0081
        51         0.0009     -0.0091     -0.0000      0.0001      0.0003
        52        -0.0000      0.0000     -0.0191      0.0004      0.0012
        53         0.0000      0.0000      0.0007      0.0000      0.0000
        54         0.0214      0.0088      0.0000      0.0005      0.0018
        55        -0.0000     -0.0000     -0.0136      0.0002      0.0006
        56        -0.0614     -0.0351      0.0000      0.0050      0.0164
        57         0.0000      0.0000      0.0084      0.0001      0.0002
        58        -0.0127     -0.0090      0.0000      0.0002      0.0008
        59         0.0000      0.0000     -0.0073      0.0001      0.0002
        60         0.0068      0.0020      0.0000      0.0001      0.0002
        61         0.0000     -0.0000     -0.0079      0.0001      0.0002
        62         0.0046     -0.0226     -0.0000      0.0005      0.0017
        63         0.0000      0.0000      0.0080      0.0001      0.0002
        64         0.0000      0.0000      0.0271      0.0007      0.0024
        65         0.0059      0.0010     -0.0000      0.0000      0.0001
        66         0.0000      0.0000      0.0104      0.0001      0.0003
        67         0.0091     -0.0116      0.0000      0.0002      0.0007
        68        -0.0000     -0.0000     -0.0235      0.0006      0.0018
        69         0.0041      0.0065      0.0000      0.0001      0.0002
        70         0.0457      0.0242      0.0000      0.0027      0.0084
        71        -0.0000      0.0000      0.0058      0.0000      0.0001
        72        -0.0195      0.0307     -0.0000      0.0013      0.0041
        73        -0.0000     -0.0000      0.0025      0.0000      0.0000
        74        -0.0000     -0.0000      0.0032      0.0000      0.0000
        75         0.0192      0.0501      0.0000      0.0029      0.0089
        76         0.0192      0.0087     -0.0000      0.0004      0.0014
        77        -0.0000     -0.0000     -0.0131      0.0002      0.0005
        78        -0.0029      0.0057      0.0000      0.0000      0.0001
        79         0.0000      0.0000      0.0216      0.0005      0.0014
        80        -0.0001      0.0006      0.0000      0.0000      0.0000
        81        -0.0000     -0.0000     -0.0172      0.0003      0.0009
        82         0.0021      0.0033     -0.0000      0.0000      0.0000
        83        -0.0294      0.0014      0.0000      0.0009      0.0026
        84        -0.0000      0.0000     -0.0196      0.0004      0.0012
        85        -0.0047     -0.0536     -0.0000      0.0029      0.0088
        86         0.0000     -0.0000      0.0059      0.0000      0.0001
        87         0.0086      0.0053      0.0000      0.0001      0.0003
        88         0.0002     -0.0135     -0.0000      0.0002      0.0006
        89        -0.0000      0.0000     -0.0002      0.0000      0.0000
        90         0.0000     -0.0000     -0.0125      0.0002      0.0005
        91        -0.0000      0.0000     -0.0049      0.0000      0.0001
        92         0.0037     -0.0329      0.0000      0.0011      0.0033
        93         0.0000      0.0000     -0.0045      0.0000      0.0001
        94        -0.0009      0.0052      0.0000      0.0000      0.0001
        95         0.0227     -0.0170      0.0000      0.0008      0.0024
        96         0.0448     -0.0375      0.0000      0.0034      0.0102
        97        -0.0000      0.0000      0.0080      0.0001      0.0002
        98        -0.0000      0.0000      0.0118      0.0001      0.0004
        99        -0.0004      0.0160      0.0000      0.0003      0.0008
       100         0.0042     -0.0014     -0.0000      0.0000      0.0001
       101         0.0000      0.0000      0.0065      0.0000      0.0001
       102         0.0390     -0.0045      0.0000      0.0015      0.0045
       103         0.0000      0.0000      0.0025      0.0000      0.0000
       104         0.0000      0.0000     -0.0036      0.0000      0.0000
       105         0.0000     -0.0000     -0.0127      0.0002      0.0005
       106        -0.0220      0.0160      0.0000      0.0007      0.0022
       107         0.0000     -0.0000      0.0110      0.0001      0.0004
       108        -0.0000      0.0000     -0.0118      0.0001      0.0004
       109         0.0115     -0.0333     -0.0000      0.0012      0.0036
       110         0.0015     -0.0057     -0.0000      0.0000      0.0001
       111         0.0000      0.0000      0.0009      0.0000      0.0000
       112        -0.0246      0.0091     -0.0000      0.0007      0.0020
       113        -0.0409     -0.0078     -0.0000      0.0017      0.0050
       114         0.0000     -0.0000     -0.0157      0.0002      0.0007
       115         0.0948     -0.0804      0.0000      0.0154      0.0446
       116         0.0107      0.0049      0.0000      0.0001      0.0004
       117        -0.0019     -0.0173     -0.0000      0.0003      0.0009
       118         0.0000      0.0000     -0.0014      0.0000      0.0000
       119         0.0570     -0.0750      0.0000      0.0089      0.0255
       120        -0.0000      0.0000      0.0258      0.0007      0.0019
       121         0.0489     -0.0330      0.0000      0.0035      0.0100
       122         0.0000     -0.0000     -0.0055      0.0000      0.0001
       123         0.0000     -0.0000      0.0072      0.0001      0.0001
       124        -0.0704      0.0824     -0.0000      0.0118      0.0336
       125        -0.0000      0.0000     -0.0386      0.0015      0.0043
       126         0.0161     -0.0102     -0.0000      0.0004      0.0010
       127         0.0000     -0.0000     -0.0113      0.0001      0.0004
       128         0.0187     -0.0357      0.0000      0.0016      0.0046
       129         0.0000     -0.0000      0.0092      0.0001      0.0002
       130         0.0083     -0.0850     -0.0000      0.0073      0.0207
       131        -0.0000     -0.0000     -0.0086      0.0001      0.0002
       132         0.0086      0.0577     -0.0000      0.0034      0.0096
       133         0.0151     -0.0313     -0.0000      0.0012      0.0034
       134        -0.0119     -0.0310      0.0000      0.0011      0.0031
       135        -0.0000     -0.0000     -0.0153      0.0002      0.0007
       136         0.0060     -0.0247     -0.0000      0.0006      0.0018
       137        -0.0000      0.0000     -0.0124      0.0002      0.0004
       138        -0.0168      0.0476      0.0000      0.0025      0.0071
       139        -0.0000      0.0000     -0.0140      0.0002      0.0005
       140         0.0012     -0.0255      0.0000      0.0007      0.0018
       141        -0.0000     -0.0000     -0.0069      0.0000      0.0001
       142        -0.0418     -0.0612      0.0000      0.0055      0.0152
       143         0.0000      0.0000      0.0170      0.0003      0.0008
       144         0.0000      0.0000     -0.0043      0.0000      0.0001
       145        -0.0000     -0.0000     -0.0050      0.0000      0.0001
       146        -0.0061      0.0060     -0.0000      0.0001      0.0002
       147        -0.0122     -0.0210     -0.0000      0.0006      0.0016
       148         0.0000      0.0000     -0.0067      0.0000      0.0001
       149        -0.0000      0.0000      0.0121      0.0001      0.0004
       150         0.0000      0.0000     -0.0159      0.0003      0.0007
 Ground to excited state transition magnetic dipole moments (Au):
       state          X           Y           Z
         1        -0.0190     -0.2622      0.0000
         2         0.0000     -0.0000     -0.4036
         3         0.0000     -0.0000      0.9395
         4        -0.0104      0.0363     -0.0000
         5         0.0108      0.1309     -0.0000
         6        -0.0000      0.0000      0.1871
         7        -0.0115      0.5698      0.0000
         8         0.0000     -0.0000     -0.0398
         9        -0.0000     -0.0000     -0.4237
        10        -0.0404      0.0724      0.0000
        11        -0.0000     -0.0000      0.0504
        12        -0.3186     -0.5060      0.0000
        13         0.0000     -0.0000     -0.0784
        14         0.0000     -0.0000      0.2931
        15        -0.1910     -0.3315     -0.0000
        16         0.0056      0.2417     -0.0000
        17        -0.0017     -0.0409      0.0000
        18        -0.0000      0.0000     -0.1304
        19         0.0885      0.5272      0.0000
        20         0.0000     -0.0000     -0.1164
        21        -0.0202     -0.2698     -0.0000
        22         0.0000     -0.0000     -0.1408
        23         0.0013     -0.0348      0.0000
        24         0.0000     -0.0000     -0.6786
        25         0.0444     -0.1030      0.0001
        26         0.0659      0.0355      0.0000
        27        -0.0000      0.0000      0.2805
        28         0.0000      0.0000     -0.2390
        29        -0.0100      0.0956      0.0000
        30        -0.0665     -0.1257     -0.0000
        31        -0.0000      0.0000      0.2021
        32         0.0000     -0.0000     -0.0531
        33        -0.0060     -0.6384     -0.0000
        34         0.0649      0.1803      0.0000
        35        -0.0000     -0.0000     -0.1709
        36         0.1830      0.3051     -0.0000
        37        -0.0196     -0.2303      0.0000
        38        -0.0000     -0.0000     -0.1374
        39        -0.0000     -0.0000      0.0459
        40         0.0000     -0.0000     -0.0451
        41        -0.1745     -0.1395      0.0000
        42        -0.0223     -0.4400     -0.0000
        43        -0.0000      0.0001     -0.2070
        44        -0.1147     -0.4465     -0.0000
        45        -0.0000      0.0000      0.4329
        46         0.0001     -0.0000     -0.3752
        47        -0.1498      0.0109     -0.0002
        48         0.0000     -0.0000      0.3522
        49         0.0000      0.0001      0.1770
        50        -0.1277     -0.3752      0.0001
        51         0.0410     -0.0719     -0.0000
        52        -0.0000     -0.0000     -0.1461
        53         0.0000      0.0000     -0.7246
        54        -0.1252      0.3413      0.0000
        55        -0.0000      0.0001     -0.4992
        56         0.0213      0.3151      0.0000
        57         0.0000      0.0000     -0.5422
        58        -0.1923     -0.2951     -0.0000
        59        -0.0000     -0.0000     -0.0652
        60         0.0208     -0.0374      0.0000
        61        -0.0000     -0.0000      0.4504
        62         0.0204      0.0096     -0.0000
        63        -0.0000     -0.0000     -0.1097
        64         0.0000     -0.0000      0.5745
        65        -0.0283     -0.2439     -0.0000
        66         0.0000     -0.0000      0.5272
        67        -0.0991     -0.3017     -0.0001
        68         0.0000      0.0000     -2.2704
        69         0.0532      0.2631      0.0000
        70        -0.0767     -0.0701     -0.0000
        71        -0.0000     -0.0000      0.0969
        72         0.0157     -0.1615     -0.0000
        73         0.0000     -0.0000      0.5254
        74         0.0000     -0.0000     -0.0365
        75        -0.0426     -0.0407      0.0001
        76         0.0855     -0.1496     -0.0001
        77        -0.0000      0.0000      0.0945
        78         0.0117     -0.0245      0.0000
        79        -0.0000     -0.0000      0.6408
        80         0.0291      0.1007      0.0000
        81         0.0000      0.0000     -1.3552
        82        -0.2268      0.1968     -0.0000
        83        -0.0513      0.2950     -0.0000
        84        -0.0000      0.0000     -0.2367
        85         0.0444      0.3220     -0.0000
        86         0.0000      0.0000     -0.0720
        87        -0.0765      0.0345     -0.0000
        88        -0.1141     -0.0546      0.0000
        89         0.0000     -0.0000      0.3823
        90        -0.0000      0.0000     -0.5168
        91        -0.0000     -0.0000      0.3778
        92        -0.0268     -0.0714      0.0000
        93         0.0000     -0.0000      0.5910
        94         0.0139     -0.3947      0.0000
        95         0.0093      0.2099      0.0000
        96         0.0484     -0.1495      0.0000
        97        -0.0000      0.0000      0.4332
        98         0.0000      0.0000      0.3645
        99         0.0865      0.3819     -0.0000
       100        -0.1898     -0.4809     -0.0000
       101        -0.0000     -0.0000     -0.5918
       102        -0.0228     -0.3199      0.0000
       103         0.0000     -0.0000      0.3586
       104         0.0000     -0.0000      0.0859
       105         0.0000     -0.0000     -0.9473
       106         0.0143      0.2209      0.0000
       107         0.0000      0.0000      0.9934
       108        -0.0000     -0.0000      0.7577
       109         0.0779      0.3599      0.0000
       110         0.0763      0.1023     -0.0001
       111         0.0000     -0.0001     -0.1041
       112        -0.1132     -0.0905     -0.0000
       113         0.0352     -0.0819      0.0000
       114         0.0000      0.0000     -0.2585
       115         0.1099      0.5059     -0.0000
       116         0.3104      0.1755     -0.0000
       117         0.0843     -0.1628      0.0000
       118         0.0000     -0.0000      0.5267
       119         0.1031      0.3967      0.0000
       120        -0.0000      0.0000      0.2996
       121        -0.0739     -0.4648     -0.0000
       122        -0.0000     -0.0000     -0.0272
       123        -0.0000      0.0000     -0.3163
       124         0.0866     -0.2565      0.0000
       125         0.0000      0.0000      0.2817
       126         0.0437     -0.3617     -0.0000
       127         0.0000      0.0000     -0.2280
       128        -0.0217      0.1828      0.0000
       129        -0.0000      0.0001      1.1905
       130         0.0146      0.3651     -0.0002
       131        -0.0000     -0.0000     -0.0787
       132         0.0839     -0.1376     -0.0000
       133         0.0794      0.4789      0.0000
       134         0.0086      0.5731      0.0000
       135        -0.0000      0.0001     -0.2238
       136        -0.1486      0.0488     -0.0002
       137         0.0001     -0.0000     -0.3239
       138        -0.1335      0.0496      0.0000
       139         0.0000     -0.0000     -1.4360
       140        -0.0736     -0.4173     -0.0000
       141         0.0000      0.0000     -1.6526
       142         0.0018      0.1997      0.0001
       143         0.0000     -0.0000      0.5314
       144        -0.0000     -0.0000      0.4673
       145         0.0000      0.0000     -0.8258
       146         0.0329     -0.3131      0.0001
       147         0.1733      0.1761      0.0000
       148        -0.0000      0.0000      0.1660
       149        -0.0000      0.0000      0.5749
       150         0.0000     -0.0000     -0.2967
 Ground to excited state transition velocity quadrupole moments (Au):
       state          XX          YY          ZZ          XY          XZ          YZ
         1        -0.0000      0.0000     -0.0000      0.0000      0.1214     -0.0130
         2        -4.6243     -0.0440     -0.0063      0.1158      0.0000      0.0000
         3        20.1278      0.2838      0.0681     -0.9963      0.0000      0.0000
         4         0.0000     -0.0000     -0.0000     -0.0000     -0.0853      0.0149
         5        -0.0000      0.0000     -0.0000     -0.0000     -0.1116      0.0060
         6        -4.4907     -0.2036     -0.0151      0.8281     -0.0000     -0.0000
         7        -0.0001     -0.0000      0.0000      0.0000     -0.6791      0.0845
         8        -1.6614     -0.0808      0.0016      0.1407      0.0000     -0.0000
         9         7.3022      0.3052      0.0381     -0.9535      0.0000      0.0000
        10        -0.0001     -0.0000     -0.0000      0.0000     -0.0896      0.0004
        11         0.9284      0.0244     -0.0001     -0.0127      0.0000     -0.0000
        12        -0.0000     -0.0000      0.0000      0.0000      0.5589     -0.2765
        13        -2.9221      0.0455      0.0199     -0.0898      0.0000      0.0000
        14        -6.5163      0.1177     -0.0155      0.1451      0.0000      0.0000
        15        -0.0001     -0.0000      0.0000     -0.0000      0.3099     -0.1803
        16        -0.0000     -0.0000      0.0000      0.0000     -0.2574      0.0200
        17         0.0000      0.0000     -0.0000      0.0000      0.0541     -0.0093
        18         0.8066     -0.0257     -0.0140     -0.0883     -0.0000     -0.0000
        19        -0.0000      0.0000     -0.0000      0.0000     -0.5443      0.0798
        20        -0.8014      0.0416      0.0105     -0.1033      0.0000     -0.0000
        21         0.0000     -0.0000      0.0000     -0.0000      0.2647     -0.0096
        22         5.0089     -0.1809      0.0110     -0.0689      0.0000      0.0000
        23         0.0000     -0.0000     -0.0000      0.0000      0.0095      0.0066
        24        -0.8370      0.2216      0.0507     -0.5830      0.0000      0.0000
        25         0.0001     -0.0000     -0.0000      0.0000      0.0942      0.0233
        26        -0.0001      0.0000     -0.0000      0.0000     -0.1825      0.0563
        27        -0.4154      0.0951     -0.0106      0.2473      0.0000     -0.0000
        28         0.1464      0.0504     -0.0396     -0.2214     -0.0000      0.0000
        29        -0.0000      0.0000      0.0000      0.0000     -0.0561     -0.0226
        30         0.0000      0.0000     -0.0000     -0.0000      0.1020     -0.0655
        31        -0.6742      0.0427     -0.0183      0.1422     -0.0000     -0.0000
        32        -0.9030     -0.2332     -0.0616      0.1248      0.0000      0.0000
        33        -0.0000     -0.0000      0.0000      0.0000      0.7381     -0.0328
        34         0.0000     -0.0000      0.0000      0.0000     -0.1677      0.0008
        35        -0.6454      0.1164      0.0827     -0.0327      0.0000     -0.0000
        36        -0.0000     -0.0000      0.0000     -0.0000     -0.3532      0.1565
        37        -0.0000      0.0000     -0.0000     -0.0000      0.2138     -0.0037
        38         0.0218     -0.0067      0.0151     -0.0792      0.0000      0.0000
        39        -0.2111     -0.0185      0.0232      0.0491      0.0000     -0.0000
        40        -0.3753      0.0074     -0.0093      0.0110      0.0000      0.0000
        41        -0.0000      0.0000     -0.0000      0.0000      0.0749      0.0578
        42         0.0004      0.0000     -0.0000     -0.0001      0.5819     -0.0905
        43         2.2873      0.0864     -0.0201     -0.3361     -0.0001      0.0000
        44         0.0000      0.0000      0.0000     -0.0000      0.3559     -0.0504
        45        -0.4105     -0.0287     -0.0131      0.5588     -0.0000     -0.0000
        46         1.3619     -0.0082     -0.0403     -0.4713      0.0001      0.0000
        47         0.0006      0.0000     -0.0000     -0.0002     -0.1214     -0.0422
        48        -0.6434     -0.1543     -0.0264      0.5351      0.0000      0.0000
        49        -0.0801     -0.1160     -0.0083      0.3064     -0.0001      0.0000
        50        -0.0001     -0.0000     -0.0000      0.0001      0.3927     -0.0536
        51        -0.0000     -0.0000      0.0000     -0.0000      0.0618     -0.0132
        52        -0.0540     -0.0055      0.0129     -0.1610      0.0000     -0.0000
        53        -0.0567     -0.0081     -0.0552     -0.7627      0.0000      0.0000
        54         0.0000     -0.0000     -0.0000      0.0000     -0.3027     -0.0761
        55        -0.1183      0.2228      0.1725     -0.5689     -0.0001     -0.0000
        56        -0.0000     -0.0000     -0.0000      0.0000     -0.2757     -0.0031
        57         1.0648      0.1626      0.0599     -0.6269     -0.0000     -0.0000
        58        -0.0000      0.0000     -0.0000     -0.0000      0.2379     -0.0706
        59         2.2038      0.3089      0.0369     -0.4237      0.0000      0.0000
        60        -0.0004     -0.0000     -0.0000      0.0001      0.0247      0.0271
        61         1.8385     -0.2813     -0.0224      0.4053      0.0000     -0.0000
        62         0.0001     -0.0000     -0.0000     -0.0000     -0.0418      0.0398
        63        -2.7264      0.1958      0.1731     -0.0461     -0.0000      0.0000
        64         0.4432     -0.0626     -0.0262      0.5604      0.0000     -0.0000
        65        -0.0000      0.0000     -0.0000     -0.0000      0.2308     -0.0529
        66        -1.3016     -0.0234      0.0573      0.5374      0.0000      0.0000
        67         0.0001      0.0000      0.0000     -0.0001      0.3339     -0.0406
        68         4.8180      0.1315     -0.0158     -2.4239     -0.0000     -0.0000
        69        -0.0000      0.0000      0.0000      0.0000     -0.2481      0.0129
        70        -0.0000     -0.0000      0.0000     -0.0000      0.1439     -0.0350
        71        -1.9966     -0.0119     -0.0132      0.2317      0.0000     -0.0000
        72         0.0001     -0.0000     -0.0000     -0.0000      0.1626      0.0049
        73        -0.4655      0.0083     -0.0476      0.4496     -0.0000      0.0000
        74         0.9707      0.0398      0.0277     -0.0846     -0.0000      0.0000
        75         0.0002      0.0000     -0.0000      0.0001      0.0815     -0.0206
        76        -0.0001     -0.0000      0.0000     -0.0000     -0.0773      0.0715
        77        -0.0302      0.0232      0.0077      0.1079     -0.0000     -0.0000
        78         0.0000      0.0000     -0.0000      0.0000      0.0503     -0.0078
        79        -1.2497     -0.0242      0.0414      0.6868     -0.0000      0.0000
        80        -0.0001     -0.0000      0.0000      0.0000     -0.1303      0.0473
        81         1.6061      0.1374      0.0139     -1.4404     -0.0000     -0.0000
        82        -0.0000      0.0000      0.0000     -0.0000     -0.1412     -0.2590
        83         0.0000     -0.0000      0.0000     -0.0000     -0.2564     -0.0442
        84        -0.2296      0.0417      0.0170     -0.2571     -0.0000     -0.0000
        85         0.0000      0.0000      0.0000     -0.0000     -0.3634      0.0673
        86         0.0687     -0.0208      0.0059     -0.0583     -0.0001      0.0000
        87        -0.0000      0.0000     -0.0000     -0.0000     -0.0116     -0.1095
        88         0.0000     -0.0000      0.0000      0.0000      0.0306      0.0294
        89        -0.3312     -0.1187      0.0607      0.4986      0.0000     -0.0000
        90        -0.0727      0.0762     -0.0131     -0.5328     -0.0000     -0.0000
        91        -0.7879      0.0024      0.0381      0.3700      0.0000     -0.0000
        92         0.0001     -0.0000      0.0000      0.0000      0.1877     -0.0197
        93        -0.3761     -0.1012      0.0422      0.5666      0.0000      0.0000
        94        -0.0000     -0.0000      0.0000      0.0000      0.3121     -0.0194
        95        -0.0000     -0.0000      0.0000      0.0000     -0.2302     -0.0225
        96        -0.0000     -0.0000      0.0000     -0.0000      0.1323      0.0253
        97        -0.2192     -0.0825      0.0107      0.4105     -0.0000     -0.0000
        98        -0.2919      0.0188      0.0400      0.3127     -0.0000      0.0000
        99         0.0000     -0.0000      0.0000     -0.0000     -0.4222      0.0213
       100         0.0000      0.0000     -0.0000     -0.0000      0.3580     -0.1218
       101        -2.0709      0.2735     -0.0171     -0.4751      0.0000     -0.0000
       102        -0.0000     -0.0000      0.0000      0.0000      0.2904     -0.0769
       103        -0.1247     -0.0627      0.0097      0.3662      0.0000     -0.0000
       104         0.1711      0.0357     -0.0138      0.0659      0.0000     -0.0000
       105         1.7069      0.2312     -0.0300     -0.9826      0.0000     -0.0000
       106        -0.0001     -0.0000      0.0000      0.0000     -0.2501     -0.0079
       107        -0.1647      0.1202      0.0332      0.9491     -0.0000      0.0000
       108         0.1466      0.0521     -0.0135      0.6845      0.0000     -0.0000
       109        -0.0000     -0.0000     -0.0000      0.0000     -0.3576      0.0709
       110         0.0000     -0.0000      0.0000     -0.0001      0.0532      0.0661
       111         0.3666     -0.0495      0.0229     -0.1707      0.0000      0.0000
       112         0.0000     -0.0000     -0.0000     -0.0000      0.1831     -0.0603
       113         0.0001     -0.0000     -0.0000      0.0000      0.1682     -0.0987
       114        -1.5489     -0.0078      0.0762     -0.1675      0.0000     -0.0000
       115         0.0000      0.0000     -0.0000     -0.0000     -0.5514      0.0309
       116         0.0000     -0.0000     -0.0000     -0.0000     -0.1568      0.0830
       117         0.0000      0.0000     -0.0000      0.0000      0.1874      0.0566
       118        -1.2186      0.2486      0.1327      0.3510     -0.0000      0.0000
       119        -0.0000      0.0000      0.0000      0.0000     -0.4848      0.0785
       120        -0.1504      0.0509      0.0955      0.2952     -0.0000     -0.0000
       121        -0.0001      0.0000      0.0000     -0.0000      0.4777     -0.1026
       122         0.7979     -0.1357     -0.0293      0.0011      0.0000     -0.0000
       123        -0.2297     -0.0281      0.0842     -0.2283     -0.0000     -0.0000
       124         0.0001     -0.0000      0.0000      0.0000      0.2945     -0.0105
       125        -0.5784      0.1175      0.0583      0.2472     -0.0000      0.0000
       126         0.0000     -0.0000      0.0000     -0.0000      0.2801      0.0630
       127         0.8635     -0.0403     -0.0005     -0.2625     -0.0000     -0.0000
       128        -0.0001     -0.0000      0.0000      0.0000     -0.2078     -0.0284
       129         0.6500      0.0723      0.0908      0.9930     -0.0001     -0.0000
       130        -0.0001     -0.0000     -0.0000     -0.0002     -0.4215      0.0086
       131        -0.4530      0.0058      0.0002     -0.1441      0.0000     -0.0000
       132        -0.0000     -0.0000      0.0000     -0.0000      0.1675      0.0396
[...]
 Alpha virt. eigenvalues --    0.30697   0.30773   0.31164   0.31340   0.31625
 Alpha virt. eigenvalues --    0.31645   0.31743   0.32186   0.32305   0.32318
 Alpha virt. eigenvalues --    0.32526   0.32673   0.32950   0.33102   0.33543
 Alpha virt. eigenvalues --    0.33546   0.34082   0.34276   0.34434   0.34890
 Alpha virt. eigenvalues --    0.35221   0.35479   0.36267   0.36493   0.36748
 Alpha virt. eigenvalues --    0.37417   0.37467   0.37711   0.38078   0.38483
 Alpha virt. eigenvalues --    0.38923   0.39417   0.39454   0.40159   0.40614
 Alpha virt. eigenvalues --    0.41305   0.42096   0.42115   0.42505   0.42536
 Alpha virt. eigenvalues --    0.42849   0.43499   0.43633   0.43931   0.44063
 Alpha virt. eigenvalues --    0.44685   0.44786   0.44888   0.45018   0.45116
 Alpha virt. eigenvalues --    0.45385   0.45415   0.45660   0.46039   0.46138
 Alpha virt. eigenvalues --    0.46481   0.46854   0.46968   0.47159   0.47176
 Alpha virt. eigenvalues --    0.47676   0.47728   0.48481   0.48557   0.49078
 Alpha virt. eigenvalues --    0.49204   0.50197   0.50349   0.50651   0.51342
 Alpha virt. eigenvalues --    0.52385   0.52493   0.52836   0.52877   0.53448
 Alpha virt. eigenvalues --    0.53580   0.53771   0.53946   0.54053   0.54244
 Alpha virt. eigenvalues --    0.54295   0.54504   0.54564   0.54638   0.54877
 Alpha virt. eigenvalues --    0.55354   0.55656   0.56122   0.56130   0.56247
 Alpha virt. eigenvalues --    0.56592   0.56658   0.57118   0.57593   0.58143
 Alpha virt. eigenvalues --    0.58174   0.58406   0.58407   0.58960   0.59378
 Alpha virt. eigenvalues --    0.60085   0.60156   0.60329   0.60426   0.60653
 Alpha virt. eigenvalues --    0.60796   0.61066   0.61107   0.61548   0.61587
 Alpha virt. eigenvalues --    0.61876   0.62118   0.62147   0.62437   0.62487
 Alpha virt. eigenvalues --    0.62706   0.62745   0.63051   0.63128   0.63278
 Alpha virt. eigenvalues --    0.63613   0.63844   0.63923   0.64026   0.64392
 Alpha virt. eigenvalues --    0.64532   0.64679   0.64797   0.65248   0.65670
 Alpha virt. eigenvalues --    0.65721   0.65938   0.66175   0.66412   0.66517
 Alpha virt. eigenvalues --    0.66622   0.66744   0.67147   0.67383   0.67629
 Alpha virt. eigenvalues --    0.67806   0.67970   0.68235   0.68917   0.69195
 Alpha virt. eigenvalues --    0.69304   0.69437   0.69595   0.69938   0.70249
 Alpha virt. eigenvalues --    0.70381   0.70958   0.71139   0.71412   0.71622
 Alpha virt. eigenvalues --    0.71655   0.71822   0.72007   0.72144   0.72315
 Alpha virt. eigenvalues --    0.72537   0.72615   0.72632   0.72858   0.72970
 Alpha virt. eigenvalues --    0.73398   0.73661   0.73707   0.73837   0.73898
 Alpha virt. eigenvalues --    0.74151   0.74496   0.74596   0.74867   0.75012
 Alpha virt. eigenvalues --    0.75114   0.75323   0.75590   0.75730   0.75974
 Alpha virt. eigenvalues --    0.76259   0.76399   0.76810   0.76814   0.77049
 Alpha virt. eigenvalues --    0.77244   0.77402   0.77897   0.78524   0.78621
 Alpha virt. eigenvalues --    0.78696   0.79029   0.79165   0.79529   0.79892
 Alpha virt. eigenvalues --    0.80138   0.80753   0.81164   0.81779   0.82006
 Alpha virt. eigenvalues --    0.82396   0.82413   0.83300   0.83375   0.83811
 Alpha virt. eigenvalues --    0.84067   0.84620   0.85015   0.85147   0.86024
 Alpha virt. eigenvalues --    0.86274   0.86489   0.86920   0.87141   0.87453
 Alpha virt. eigenvalues --    0.87786   0.88809   0.89232   0.90547   0.90604
 Alpha virt. eigenvalues --    0.91950   0.92562   0.92882   0.93080   0.93847
 Alpha virt. eigenvalues --    0.94029   0.95067   0.95335   0.95467   0.95612
 Alpha virt. eigenvalues --    0.96910   0.97191   0.97235   0.98230   0.99033
 Alpha virt. eigenvalues --    0.99152   0.99494   1.00022   1.00045   1.00209
 Alpha virt. eigenvalues --    1.00532   1.00894   1.01336   1.02708   1.02729
 Alpha virt. eigenvalues --    1.03067   1.03110   1.03641   1.04295   1.04565
 Alpha virt. eigenvalues --    1.04962   1.05453   1.05569   1.06350   1.06679
 Alpha virt. eigenvalues --    1.07064   1.07847   1.08223   1.08513   1.08779
 Alpha virt. eigenvalues --    1.09218   1.10090   1.10838   1.11028   1.11362
 Alpha virt. eigenvalues --    1.11868   1.11985   1.12390   1.12920   1.13785
 Alpha virt. eigenvalues --    1.14785   1.16088   1.16693   1.16787   1.17050
 Alpha virt. eigenvalues --    1.17939   1.17968   1.20202   1.20524   1.20916
 Alpha virt. eigenvalues --    1.21407   1.21628   1.22481   1.22581   1.26468
 Alpha virt. eigenvalues --    1.26544   1.27107   1.27857   1.28648   1.28845
 Alpha virt. eigenvalues --    1.29542   1.30609   1.32196   1.32790   1.33149
 Alpha virt. eigenvalues --    1.33416   1.35339   1.35863   1.36258   1.40382
 Alpha virt. eigenvalues --    1.40397   1.41822   1.41836   1.46413   1.46975
 Alpha virt. eigenvalues --    1.47444   1.47993   1.48107   1.48167   1.50205
 Alpha virt. eigenvalues --    1.50552   1.50858   1.50932   1.51850   1.52049
 Alpha virt. eigenvalues --    1.52568   1.52767   1.53000   1.53824   1.54303
 Alpha virt. eigenvalues --    1.54342   1.54403   1.54975   1.56391   1.56527
 Alpha virt. eigenvalues --    1.57091   1.57342   1.57612   1.57632   1.57734
 Alpha virt. eigenvalues --    1.58579   1.58653   1.58912   1.59012   1.59205
 Alpha virt. eigenvalues --    1.59458   1.59495   1.59835   1.60236   1.60573
 Alpha virt. eigenvalues --    1.60650   1.61104   1.61317   1.61492   1.62845
 Alpha virt. eigenvalues --    1.62940   1.63012   1.63684   1.63984   1.64820
 Alpha virt. eigenvalues --    1.64853   1.65001   1.65217   1.66360   1.66575
 Alpha virt. eigenvalues --    1.66626   1.67398   1.67756   1.68398   1.68453
 Alpha virt. eigenvalues --    1.68942   1.69155   1.69869   1.70106   1.70156
 Alpha virt. eigenvalues --    1.71585   1.71689   1.71917   1.71997   1.72809
 Alpha virt. eigenvalues --    1.73348   1.73444   1.73597   1.73686   1.74806
 Alpha virt. eigenvalues --    1.74846   1.75245   1.75412   1.76242   1.76304
 Alpha virt. eigenvalues --    1.78424   1.79044   1.79068   1.79731   1.80503
 Alpha virt. eigenvalues --    1.81336   1.81452   1.82102   1.82201   1.83587
 Alpha virt. eigenvalues --    1.83940   1.84490   1.85006   1.86780   1.87093
 Alpha virt. eigenvalues --    1.87718   1.88464   1.88499   1.89016   1.89631
 Alpha virt. eigenvalues --    1.91347   1.92646   1.92676   1.92903   1.93907
 Alpha virt. eigenvalues --    1.93970   1.94317   1.94705   1.95992   1.96717
 Alpha virt. eigenvalues --    1.96997   1.99142   1.99488   2.00105   2.00123
 Alpha virt. eigenvalues --    2.01628   2.02723   2.03772   2.05261   2.05761
 Alpha virt. eigenvalues --    2.06240   2.06584   2.06784   2.07177   2.07625
 Alpha virt. eigenvalues --    2.07923   2.08888   2.09934   2.11162   2.11277
 Alpha virt. eigenvalues --    2.12030   2.12149   2.12753   2.12810   2.15375
 Alpha virt. eigenvalues --    2.17546   2.17825   2.18708   2.18737   2.19642
 Alpha virt. eigenvalues --    2.20224   2.20606   2.21355   2.22653   2.22911
 Alpha virt. eigenvalues --    2.23100   2.25134   2.25180   2.26168   2.28704
 Alpha virt. eigenvalues --    2.29078   2.29193   2.29884   2.30260   2.30526
 Alpha virt. eigenvalues --    2.32871   2.33360   2.34589   2.36294   2.36803
 Alpha virt. eigenvalues --    2.37644   2.38393   2.39001   2.39488   2.40326
 Alpha virt. eigenvalues --    2.43085   2.45053   2.45151   2.49389   2.49539
 Alpha virt. eigenvalues --    2.50305   2.50976   2.51961   2.51962   2.52038
 Alpha virt. eigenvalues --    2.52447   2.53074   2.53163   2.53884   2.53896
 Alpha virt. eigenvalues --    2.54326   2.54340   2.55651   2.55652   2.55843
 Alpha virt. eigenvalues --    2.55988   2.56846   2.57992   2.58194   2.58211
 Alpha virt. eigenvalues --    2.58759   2.59068   2.59160   2.59440   2.59916
 Alpha virt. eigenvalues --    2.60297   2.61418   2.61496   2.61746   2.61802
 Alpha virt. eigenvalues --    2.62697   2.64433   2.64457   2.65357   2.65369
 Alpha virt. eigenvalues --    2.65790   2.65898   2.67042   2.67057   2.67564
 Alpha virt. eigenvalues --    2.68702   2.68711   2.69150   2.69623   2.70381
 Alpha virt. eigenvalues --    2.70751   2.71216   2.71251   2.71543   2.74959
 Alpha virt. eigenvalues --    2.76747   2.76976   2.77952   2.79093   2.80690
 Alpha virt. eigenvalues --    2.81960   2.83671   2.84573   2.85003   2.85198
 Alpha virt. eigenvalues --    2.85500   2.87366   2.91327   2.91414   2.92433
 Alpha virt. eigenvalues --    2.92795   2.93517   2.95248   2.95998   2.96459
 Alpha virt. eigenvalues --    2.96952   2.97426   2.97900   2.98998   3.00189
 Alpha virt. eigenvalues --    3.00465   3.00529   3.00846   3.01142   3.01269
 Alpha virt. eigenvalues --    3.01483   3.01855   3.04340   3.05108   3.05270
 Alpha virt. eigenvalues --    3.05685   3.05718   3.06199   3.10103   3.10159
 Alpha virt. eigenvalues --    3.12678   3.12717   3.14395   3.15690   3.15836
 Alpha virt. eigenvalues --    3.15867   3.16176   3.16284   3.16383   3.16451
 Alpha virt. eigenvalues --    3.17064   3.17441   3.18583   3.18601   3.20946
 Alpha virt. eigenvalues --    3.21049   3.21885   3.21976   3.24575   3.24676
 Alpha virt. eigenvalues --    3.25770   3.26017   3.27428   3.27618   3.27750
 Alpha virt. eigenvalues --    3.28721   3.28737   3.29981   3.30441   3.30879
 Alpha virt. eigenvalues --    3.30951   3.31252   3.31725   3.31969   3.32706
 Alpha virt. eigenvalues --    3.32713   3.33191   3.33308   3.34044   3.34642
 Alpha virt. eigenvalues --    3.34989   3.35963   3.36151   3.36988   3.38859
 Alpha virt. eigenvalues --    3.38861   3.39314   3.42395   3.42548   3.42871
 Alpha virt. eigenvalues --    3.42875   3.46022   3.48195   3.49017   3.50537
 Alpha virt. eigenvalues --    3.52031   3.53725   3.62245   3.65785   3.66344
 Alpha virt. eigenvalues --    3.67892   3.68311   3.74688   3.74724   3.81038
 Alpha virt. eigenvalues --    3.86016   3.86369   3.89165   3.89821   3.92023
 Alpha virt. eigenvalues --    3.92229   3.97370   4.05156   4.05174   4.10127
 Alpha virt. eigenvalues --    4.10182   4.10930   4.10966   4.14153   4.14390
 Alpha virt. eigenvalues --    4.17463   4.18661   4.27311   4.39093   4.39887
 Alpha virt. eigenvalues --    4.41525   4.46911   4.55999   4.65505   4.72920
 Alpha virt. eigenvalues --   23.33015  23.38014  23.43488  23.48179  23.53487
 Alpha virt. eigenvalues --   23.56973  23.59638  23.62272  23.64720  23.64721
 Alpha virt. eigenvalues --   23.66287  23.66548  23.66858  23.67149  23.67537
 Alpha virt. eigenvalues --   23.68443  23.68588  23.72038  23.74569  23.76797
 Alpha virt. eigenvalues --   23.77622  23.78403  23.79311  23.79752  23.82508
 Alpha virt. eigenvalues --   23.84758  23.85862  23.86095  23.87874  24.10789
 Alpha virt. eigenvalues --   24.11341  24.11739  24.12061  24.12219  24.13032
 Alpha virt. eigenvalues --   24.13206  24.13575  24.13763  24.16656  24.16706
          Condensed to atoms (all electrons):
 Mulliken charges:
               1
     1  C   -0.477355
     2  C   -0.564380
     3  C   -0.774810
     4  C    0.337111
     5  C    0.143303
     6  C    1.301019
     7  C   -0.452489
     8  C   -0.173690
     9  C    0.810143
    10  C   -0.510234
    11  C   -0.383865
    12  C   -0.172131
    13  C    1.150071
    14  C   -0.612535
    15  C   -0.335811
    16  C   -0.335808
    17  C   -0.612533
    18  C    1.150072
    19  C   -0.172131
    20  C   -0.383865
    21  C   -0.510239
    22  C    0.810146
    23  C   -0.173685
    24  C   -0.452491
    25  C    0.143306
    26  C    1.301022
    27  C   -1.098867
    28  C   -1.176834
    29  C   -1.266807
    30  C   -0.477357
    31  C   -0.564380
    32  C   -0.774811
    33  C    0.337112
    34  C   -1.098865
    35  C   -1.176837
    36  C   -1.266813
    37  C   -1.527494
    38  C   -1.595099
    39  C   -1.595099
    40  C   -1.527495
    41  H    0.246256
    42  H    0.241193
    43  H    0.246334
    44  H    0.244836
    45  H    0.284419
    46  H    0.276608
    47  H    0.292181
    48  H    0.225408
    49  H    0.248350
    50  H    0.272695
    51  H    0.244820
    52  H    0.249932
    53  H    0.251338
    54  H    0.251338
    55  H    0.249932
    56  H    0.244821
    57  H    0.272695
    58  H    0.248350
    59  H    0.225408
    60  H    0.292181
    61  H    0.249775
    62  H    0.257683
    63  H    0.257057
    64  H    0.265145
    65  H    0.246483
    66  H    0.238950
    67  H    0.283750
    68  H    0.270615
    69  H    0.291265
    70  H    0.241193
    71  H    0.246255
    72  H    0.246334
    73  H    0.244836
    74  H    0.284419
    75  H    0.276607
    76  H    0.257683
    77  H    0.257056
    78  H    0.249775
    79  H    0.265146
    80  H    0.246483
    81  H    0.238950
    82  H    0.283750
    83  H    0.270615
    84  H    0.291265
    85  H    0.282919
    86  H    0.283280
    87  H    0.283573
    88  H    0.281411
    89  H    0.283406
    90  H    0.281072
    91  H    0.281071
    92  H    0.281412
    93  H    0.283406
    94  H    0.283280
    95  H    0.283573
    96  H    0.282918
 Sum of Mulliken charges =  -0.00000
 Mulliken charges with hydrogens summed into heavy atoms:
               1
     1  C    0.010094
     2  C   -0.073210
     3  C   -0.213783
     4  C    0.337111
     5  C    0.143303
     6  C    1.301019
     7  C   -0.160308
     8  C    0.051718
     9  C    0.810143
    10  C   -0.261884
    11  C   -0.111170
    12  C    0.072690
    13  C    1.150071
    14  C   -0.362603
    15  C   -0.084473
    16  C   -0.084471
    17  C   -0.362602
    18  C    1.150072
    19  C    0.072690
    20  C   -0.111170
    21  C   -0.261889
    22  C    0.810146
    23  C    0.051723
    24  C   -0.160309
    25  C    0.143306
    26  C    1.301022
    27  C   -0.334352
    28  C   -0.426256
    29  C   -0.421177
    30  C    0.010091
    31  C   -0.073209
    32  C   -0.213785
    33  C    0.337112
    34  C   -0.334351
    35  C   -0.426258
    36  C   -0.421184
    37  C   -0.677723
    38  C   -0.749210
    39  C   -0.749210
    40  C   -0.677723
 Electronic spatial extent (au):  <R**2>=         104490.9843
 Charge=             -0.0000 electrons
 Dipole moment (field-independent basis, Debye):
    X=              0.0000    Y=             -0.0000    Z=             -0.5258  Tot=              0.5258
 Quadrupole moment (field-independent basis, Debye-Ang):
   XX=           -155.9731   YY=           -229.7550   ZZ=           -265.9096
   XY=            -15.3446   XZ=             -0.0002   YZ=              0.0000
 Traceless Quadrupole moment (field-independent basis, Debye-Ang):
   XX=             61.2395   YY=            -12.5425   ZZ=            -48.6970
   XY=            -15.3446   XZ=             -0.0002   YZ=              0.0000
 Octapole moment (field-independent basis, Debye-Ang**2):
  XXX=              0.0058  YYY=              0.0002  ZZZ=             -7.4393  XYY=              0.0002
  XXY=             -0.0005  XXZ=            -91.1057  XZZ=              0.0001  YZZ=             -0.0000
  YYZ=              0.6534  XYZ=             10.6532
 Hexadecapole moment (field-independent basis, Debye-Ang**3):
 XXXX=        -117820.9485 YYYY=          -4098.1428 ZZZZ=           -867.7538 XXXY=          -1987.4644
 XXXZ=             -0.0352 YYYX=           -222.0941 YYYZ=             -0.0001 ZZZX=             -0.0017
 ZZZY=             -0.0001 XXYY=         -23283.6722 XXZZ=         -24687.5959 YYZZ=           -853.2634
 XXYZ=              0.0038 YYXZ=              0.0001 ZZXY=            -39.8505
 N-N= 3.637152187714D+03 E-N=-1.088485113228D+04  KE= 1.550726776562D+03
 Unable to Open any file for archive entry.
 1\1\GINC-CN04\SP\RB3LYP TD-FC\6-311+G(d)\C40H56\2100011873\04-Nov-2023
 \0\\# td=(nstates=150) b3lyp/6-311+g* scrf(smd, solvent=ethanol)\\B-1\
 \0,1\C,0,-13.193247,-1.96518,0.357514\C,0,-14.150234,-1.366297,-0.6668
 37\C,0,-14.19793,0.145886,-0.469985\C,0,-12.839886,0.781119,-0.265942\
 C,0,-11.699193,0.069117,-0.020535\C,0,-11.734254,-1.463294,0.19794\C,0
 ,-10.43464,0.808638,0.027915\C,0,-9.147698,0.368486,0.051934\C,0,-7.97
 0978,1.218813,0.064023\C,0,-6.738479,0.618773,0.069992\C,0,-5.445845,1
 .238015,0.078209\C,0,-4.280328,0.525977,0.08121\C,0,-2.942601,1.063627
 ,0.086009\C,0,-1.885522,0.185039,0.0869\C,0,-0.488362,0.47987,0.088382
 \C,0,0.488364,-0.479879,0.088381\C,0,1.885523,-0.185049,0.086901\C,0,2
 .942603,-1.063636,0.08601\C,0,4.28033,-0.525984,0.08121\C,0,5.445847,-
 1.238022,0.078205\C,0,6.73848,-0.618778,0.069986\C,0,7.97098,-1.218816
 ,0.064016\C,0,9.147699,-0.368486,0.051926\C,0,10.434641,-0.808636,0.02
 7911\C,0,11.699193,-0.069112,-0.020539\C,0,11.734248,1.463299,0.197935
 \C,0,-11.0146,-1.853868,1.513234\C,0,-11.087577,-2.209256,-0.996377\C,
 0,-12.878927,2.293643,-0.398885\C,0,13.193238,1.965187,0.357525\C,0,14
 .150237,1.366308,-0.666817\C,0,14.197934,-0.145875,-0.469969\C,0,12.83
 9889,-0.781111,-0.265939\C,0,11.014576,1.85387,1.51322\C,0,11.087582,2
 .209257,-0.996389\C,0,12.878932,-2.293635,-0.398883\C,0,8.156563,-2.71
 718,0.068498\C,0,2.769507,-2.564242,0.088788\C,0,-2.769504,2.564233,0.
 08879\C,0,-8.156557,2.717177,0.068503\H,0,-13.55224,-1.704444,1.363722
 \H,0,-13.191791,-3.061587,0.302962\H,0,-15.153148,-1.798268,-0.563053\
 H,0,-13.813091,-1.597755,-1.685187\H,0,-14.836732,0.392637,0.395545\H,
 0,-14.68517,0.631298,-1.328645\H,0,-10.553209,1.886254,-0.000126\H,0,-
 8.931571,-0.694424,0.048253\H,0,-6.727188,-0.472294,0.066595\H,0,-5.39
 419,2.323329,0.080545\H,0,-4.354073,-0.562407,0.078511\H,0,-2.136434,-
 0.876729,0.085263\H,0,-0.172471,1.5217,0.088524\H,0,0.172472,-1.521709
 ,0.088521\H,0,2.136435,0.87672,0.085267\H,0,4.354074,0.5624,0.078514\H
 ,0,5.394193,-2.323335,0.080538\H,0,6.727188,0.472289,0.066588\H,0,8.93
 1568,0.694423,0.04824\H,0,10.553213,-1.886252,-0.000123\H,0,-11.41656,
 -1.280584,2.356412\H,0,-11.183965,-2.918133,1.720013\H,0,-9.93616,-1.6
 90871,1.488587\H,0,-10.062275,-1.88498,-1.187807\H,0,-11.067226,-3.288
 779,-0.800274\H,0,-11.653135,-2.045583,-1.919919\H,0,-13.913764,2.6489
 6,-0.350635\H,0,-12.32451,2.809583,0.392139\H,0,-12.468777,2.633235,-1
 .360075\H,0,13.19178,3.061594,0.302976\H,0,13.552222,1.70445,1.363737\
 H,0,15.153149,1.798281,-0.563022\H,0,13.813104,1.597768,-1.68517\H,0,1
 4.836727,-0.392627,0.395567\H,0,14.685183,-0.631285,-1.328625\H,0,11.1
 83932,2.918136,1.719999\H,0,9.936137,1.690867,1.488558\H,0,11.416527,1
 .280589,2.356403\H,0,10.062283,1.884978,-1.18783\H,0,11.067226,3.28878
 1,-0.800288\H,0,11.65315,2.045585,-1.919926\H,0,13.913771,-2.648951,-0
 .350639\H,0,12.324521,-2.809577,0.392144\H,0,12.468777,-2.633229,-1.36
 0071\H,0,8.744087,-3.036457,0.93873\H,0,7.209146,-3.257946,0.093047\H,
 0,8.704221,-3.047232,-0.823677\H,0,3.248036,-3.011075,0.969534\H,0,1.7
 2147,-2.868026,0.092705\H,0,3.242385,-3.013831,-0.793611\H,0,-3.242396
 ,3.013825,-0.7936\H,0,-3.248019,3.011063,0.969546\H,0,-1.721466,2.8680
 16,0.092692\H,0,-7.20914,3.257941,0.093061\H,0,-8.704208,3.04723,-0.82
 3677\H,0,-8.744089,3.036455,0.93873\\Version=ES64L-G16RevC.02\State=1-
 A\HF=-1558.260245\RMSD=4.359e-09\PG=C01 [X(C40H56)]\\@
 The archive entry for this job was punched.


 WE HAVE SEEN THAT MAN ON THE AVERAGE DOES NOT LIVE ABOVE
 TWO-AND-TWENTY YEARS.  DURING THESE TWO AND TWENTY
 YEARS HE IS LIABLE TO TWO AND TWENTY THOUSAND EVILS,
 MANY OF WHICH ARE INCURABLE.  YET EVEN IN THIS DREADFUL STATE
 MEN STILL STRUT AND POSE ON THE STAGE OF LIFE.
 THEY MAKE LOVE AT THE RISK OF DESTRUCTION,
 INTRIGUE, CARRY ON WAR, AND FORM PROJECTS, JUST AS IF THEY
 WERE TO LIVE IN LUXURY AND HAPPINESS FOR A THOUSAND
 AGES.

                                              -- VOLTAIRE
 Job cpu time:       4 days  2 hours  5 minutes 24.6 seconds.
 Elapsed time:       0 days  3 hours 11 minutes 24.2 seconds.
 File lengths (MBytes):  RWF=  60240 Int=      0 D2E=      0 Chk=   4992 Scr=     32
 Normal termination of Gaussian 16 at Sat Nov  4 23:22:33 2023.
