 Entering Gaussian System, Link 0=g16
 Initial command:
 /nfs-share/home/2100011873/Gaussian16_AVX2/g16/l1.exe "/nfs-share/home/2100011873/GaussTmp/Gau-81642.inp" -scrdir="/nfs-share/home/2100011873/GaussTmp/"
 Entering Link 1 = /nfs-share/home/2100011873/Gaussian16_AVX2/g16/l1.exe PID=     81643.
  
 Copyright (c) 1988-2021, Gaussian, Inc.  All Rights Reserved.
  
 This is part of the Gaussian(R) 16 program.  It is based on
 the Gaussian(R) 09 system (copyright 2009, Gaussian, Inc.),
 the Gaussian(R) 03 system (copyright 2003, Gaussian, Inc.),
 the Gaussian(R) 98 system (copyright 1998, Gaussian, Inc.),
 the Gaussian(R) 94 system (copyright 1995, Gaussian, Inc.),
 the Gaussian 92(TM) system (copyright 1992, Gaussian, Inc.),
 the Gaussian 90(TM) system (copyright 1990, Gaussian, Inc.),
 the Gaussian 88(TM) system (copyright 1988, Gaussian, Inc.),
 the Gaussian 86(TM) system (copyright 1986, Carnegie Mellon
 University), and the Gaussian 82(TM) system (copyright 1983,
 Carnegie Mellon University). Gaussian is a federally registered
 trademark of Gaussian, Inc.
  
 This software contains proprietary and confidential information,
 including trade secrets, belonging to Gaussian, Inc.
  
 This software is provided under written license and may be
 used, copied, transmitted, or stored only in accord with that
 written license.
  
 The following legend is applicable only to US Government
 contracts under FAR:
  
                    RESTRICTED RIGHTS LEGEND
  
 Use, reproduction and disclosure by the US Government is
 subject to restrictions as set forth in subparagraphs (a)
 and (c) of the Commercial Computer Software - Restricted
 Rights clause in FAR 52.227-19.
  
 Gaussian, Inc.
 340 Quinnipiac St., Bldg. 40, Wallingford CT 06492
  
  
 ---------------------------------------------------------------
 Warning -- This program may not be used in any manner that
 competes with the business of Gaussian, Inc. or will provide
 assistance to any competitor of Gaussian, Inc.  The licensee
 of this program is prohibited from giving any competitor of
 Gaussian, Inc. access to this program.  By using this program,
 the user acknowledges that Gaussian, Inc. is engaged in the
 business of creating and licensing software in the field of
 computational chemistry and represents and warrants to the
 licensee that it is not a competitor of Gaussian, Inc. and that
 it will not use this program in any manner prohibited above.
 ---------------------------------------------------------------
  

 Cite this work as:
 Gaussian 16, Revision C.02,
 M. J. Frisch, G. W. Trucks, H. B. Schlegel, G. E. Scuseria, 
 M. A. Robb, J. R. Cheeseman, G. Scalmani, V. Barone, 
 G. A. Petersson, H. Nakatsuji, X. Li, M. Caricato, A. V. Marenich, 
 J. Bloino, B. G. Janesko, R. Gomperts, B. Mennucci, H. P. Hratchian, 
 J. V. Ortiz, A. F. Izmaylov, J. L. Sonnenberg, D. Williams-Young, 
 F. Ding, F. Lipparini, F. Egidi, J. Goings, B. Peng, A. Petrone, 
 T. Henderson, D. Ranasinghe, V. G. Zakrzewski, J. Gao, N. Rega, 
 G. Zheng, W. Liang, M. Hada, M. Ehara, K. Toyota, R. Fukuda, 
 J. Hasegawa, M. Ishida, T. Nakajima, Y. Honda, O. Kitao, H. Nakai, 
 T. Vreven, K. Throssell, J. A. Montgomery, Jr., J. E. Peralta, 
 F. Ogliaro, M. J. Bearpark, J. J. Heyd, E. N. Brothers, K. N. Kudin, 
 V. N. Staroverov, T. A. Keith, R. Kobayashi, J. Normand, 
 K. Raghavachari, A. P. Rendell, J. C. Burant, S. S. Iyengar, 
 J. Tomasi, M. Cossi, J. M. Millam, M. Klene, C. Adamo, R. Cammi, 
 J. W. Ochterski, R. L. Martin, K. Morokuma, O. Farkas, 
 J. B. Foresman, and D. J. Fox, Gaussian, Inc., Wallingford CT, 2019.
 
 ******************************************
 Gaussian 16:  ES64L-G16RevC.02  7-Dec-2021
                 4-Nov-2023 
 ******************************************
 %nprocshared=32
 Will use up to   32 processors via shared memory.
 %mem=128GB
 ------------------------------------------------------------
 # td=(nstates=150) b3lyp/6-311+g* scrf(smd, solvent=ethanol)
 ------------------------------------------------------------
 1/38=1,172=1/1;
 2/12=2,17=6,18=5,40=1/2;
 3/5=4,6=6,7=11,11=9,25=1,30=1,70=32201,72=4,74=-5/1,2,3,8;
 4//1;
 5/5=2,38=5,53=4/2;
 8/6=1,10=2,108=150/1;
 9/41=150,42=1,70=2/14;
 6/7=2,8=2,9=2,10=2/1;
 99/5=1,9=1/99;
 ---
 A-1
 ---
 Symbolic Z-matrix:
 Charge =  1 Multiplicity = 1
 C                    -1.25921   0.2167   -0.03937 
 C                     0.        0.82894  -0.00012 
 C                     1.25921   0.21668   0.03925 
 N                     2.43346   0.90485   0.146 
 S                    -1.55756  -1.51215   0.05388 
 C                    -3.29767  -1.25882  -0.02728 
 C                    -3.5899    0.10887  -0.1183 
 N                    -2.43347   0.90486  -0.14611 
 S                     1.55755  -1.51217  -0.05392 
 C                     3.29766  -1.25885   0.0273 
 C                     3.5899    0.10884   0.11825 
 C                    -4.30157  -2.22442  -0.00362 
 C                    -5.62465  -1.79213  -0.06698 
 C                    -5.92564  -0.42569  -0.14901 
 C                    -4.92039   0.53827  -0.17427 
 C                     4.30156  -2.22445   0.00372 
 C                     5.62464  -1.79215   0.06707 
 C                     5.92564  -0.42571   0.14902 
 C                     4.92038   0.53826   0.17421 
 C                    -2.51035   2.37353  -0.25723 
 C                    -2.56643   3.07379   1.10152 
 C                     2.51034   2.3735    0.2573 
 C                     2.56651   3.07393  -1.10136 
 H                     0.00001   1.90904  -0.00021 
 H                    -4.06058  -3.28031   0.06397 
 H                    -6.42724  -2.52213  -0.04909 
 H                    -6.96206  -0.10651  -0.19134 
 H                    -5.17675   1.59021  -0.22813 
 H                     4.06057  -3.28035  -0.06382 
 H                     6.42723  -2.52216   0.04923 
 H                     6.96205  -0.10653   0.19134 
 H                     5.17673   1.5902    0.22802 
 H                    -1.65749   2.70849  -0.85213 
 H                    -3.39812   2.59717  -0.85222 
 H                    -3.44119   2.75206   1.67457 
 H                    -1.67384   2.86336   1.69908 
 H                    -2.63423   4.15636   0.9543 
 H                     1.65744   2.70838   0.85218 
 H                     3.39807   2.59706   0.85237 
 H                     3.44133   2.75234  -1.67437 
 H                     1.67399   2.86351  -1.69903 
 H                     2.63421   4.15649  -0.95399 
 
                          Input orientation:                          
 ---------------------------------------------------------------------
 Center     Atomic      Atomic             Coordinates (Angstroms)
 Number     Number       Type             X           Y           Z
 ---------------------------------------------------------------------
      1          6           0       -1.259214    0.216698   -0.039367
      2          6           0        0.000003    0.828935   -0.000122
      3          6           0        1.259209    0.216684    0.039249
      4          7           0        2.433464    0.904848    0.145998
      5         16           0       -1.557561   -1.512152    0.053882
      6          6           0       -3.297665   -1.258824   -0.027283
      7          6           0       -3.589904    0.108866   -0.118299
      8          7           0       -2.433474    0.904863   -0.146106
      9         16           0        1.557549   -1.512171   -0.053923
     10          6           0        3.297657   -1.258850    0.027304
     11          6           0        3.589900    0.108842    0.118251
     12          6           0       -4.301571   -2.224422   -0.003624
     13          6           0       -5.624645   -1.792125   -0.066975
     14          6           0       -5.925643   -0.425687   -0.149009
     15          6           0       -4.920394    0.538274   -0.174272
     16          6           0        4.301563   -2.224450    0.003718
     17          6           0        5.624635   -1.792149    0.067066
     18          6           0        5.925635   -0.425707    0.149021
     19          6           0        4.920384    0.538258    0.174213
     20          6           0       -2.510348    2.373529   -0.257226
     21          6           0       -2.566433    3.073786    1.101522
     22          6           0        2.510339    2.373497    0.257299
     23          6           0        2.566508    3.073929   -1.101357
     24          1           0        0.000014    1.909040   -0.000214
     25          1           0       -4.060576   -3.280313    0.063971
     26          1           0       -6.427238   -2.522132   -0.049094
     27          1           0       -6.962056   -0.106514   -0.191342
     28          1           0       -5.176748    1.590213   -0.228130
     29          1           0        4.060566   -3.280345   -0.063815
     30          1           0        6.427230   -2.522156    0.049231
     31          1           0        6.962048   -0.106532    0.191339
     32          1           0        5.176733    1.590201    0.228019
     33          1           0       -1.657488    2.708489   -0.852128
     34          1           0       -3.398115    2.597174   -0.852215
     35          1           0       -3.441185    2.752064    1.674572
     36          1           0       -1.673838    2.863356    1.699082
     37          1           0       -2.634230    4.156364    0.954302
     38          1           0        1.657436    2.708379    0.852183
     39          1           0        3.398074    2.597059    0.852370
     40          1           0        3.441334    2.752344   -1.674368
     41          1           0        1.673988    2.863510   -1.699033
     42          1           0        2.634214    4.156493   -0.953990
 ---------------------------------------------------------------------
                    Distance matrix (angstroms):
                    1          2          3          4          5
     1  C    0.000000
     2  C    1.400715   0.000000
     3  C    2.519650   1.400715   0.000000
     4  N    3.760822   2.439026   1.365225   0.000000
     5  S    1.756880   2.812403   3.305039   4.666761   0.000000
     6  C    2.516465   3.903087   4.790266   6.128405   1.760320
     7  C    2.334518   3.663318   4.852870   6.081480   2.605334
     8  N    1.365229   2.439034   3.760832   4.875696   2.578600
     9  S    3.305050   2.812405   1.756880   2.578600   3.116975
    10  C    4.790278   3.903091   2.516468   2.332918   4.861894
    11  C    4.852874   3.663319   2.334522   1.404186   5.397047
    12  C    3.900805   5.275087   6.073147   7.428015   2.835529
    13  C    4.805530   6.205730   7.171753   8.500126   4.078500
    14  C    4.711713   6.058839   7.215967   8.469476   4.505742
    15  C    3.677751   4.932050   6.191648   7.369951   3.945244
    16  C    6.073162   5.275092   3.900810   3.647265   5.902476
    17  C    7.171762   6.205730   4.805531   4.178947   7.187664
    18  C    7.215970   6.058835   4.711714   3.737064   7.562251
    19  C    6.191643   4.932042   3.677748   2.513952   6.795766
    20  C    2.502942   2.958671   4.353095   5.173093   4.012868
    21  C    3.342664   3.583234   4.891523   5.533199   4.811050
    22  C    4.353082   2.958669   2.502941   1.474865   5.629161
    23  C    4.891599   3.583248   3.342733   2.505695   6.274923
    24  H    2.109789   1.080105   2.109786   2.636562   3.759458
    25  H    4.481896   5.777398   6.366295   7.726245   3.064568
    26  H    5.848911   7.248550   8.160293   9.502331   4.974376
    27  H    5.714015   7.027225   8.230846   9.455816   5.589680
    28  H    4.155628   5.237393   6.586320   7.650165   4.775219
    29  H    6.366315   5.777405   4.481901   4.495256   5.890985
    30  H    8.160306   7.248551   5.848913   5.263448   8.048417
    31  H    8.230848   7.027220   5.714015   4.640368   8.635879
    32  H    6.586305   5.237376   4.155620   2.828774   7.416578
    33  H    2.651080   2.646869   3.938371   4.580968   4.317945
    34  H    3.301861   3.924275   5.305856   6.153675   4.592952
    35  H    3.758546   4.283083   5.585350   6.345096   4.935404
    36  H    3.193574   3.134949   4.285170   4.808092   4.676032
    37  H    4.289407   4.349930   5.614024   6.075132   5.839696
    38  H    3.938297   2.646851   2.651036   2.086538   5.365293
    39  H    5.305812   3.924270   3.301832   2.071958   6.487027
    40  H    5.585506   4.283148   3.758687   2.782584   6.794242
    41  H    4.285298   3.134967   3.193643   2.795943   5.715071
    42  H    5.614027   4.349894   4.289436   3.438527   7.121820
                    6          7          8          9         10
     6  C    0.000000
     7  C    1.401522   0.000000
     8  N    2.332914   1.404178   0.000000
     9  S    4.861892   5.397053   4.666778   0.000000
    10  C    6.595548   7.023556   6.128425   1.760325   0.000000
    11  C    7.023549   7.183700   6.081494   2.605336   1.401520
    12  C    1.393114   2.442100   3.647261   5.902467   7.660389
    13  C    2.387639   2.785062   4.178945   7.187660   8.938722
    14  C    2.759566   2.396324   3.737060   7.562252   9.262533
    15  C    2.425782   1.399188   2.513951   6.795775   8.414669
    16  C    7.660396   8.230097   7.428039   2.835538   1.393114
    17  C    8.938723   9.410417   8.500143   4.078506   2.387638
    18  C    9.262528   9.534291   8.469488   4.505748   2.759567
    19  C    8.414656   8.526133   7.369955   3.945246   2.425783
    20  C    3.723806   2.512656   1.474868   5.629190   6.856242
    21  C    4.536564   3.365443   2.505690   6.274813   7.369751
    22  C    6.856213   6.517867   5.173095   4.012865   3.723803
    23  C    7.369865   6.903580   5.533279   4.811178   4.536676
    24  H    4.572831   4.017721   2.636573   3.759453   4.572826
    25  H    2.162586   3.426556   4.495252   5.890972   7.630940
    26  H    3.375004   3.870065   5.263445   8.048408   9.806901
    27  H    3.844801   3.379813   4.640365   8.635880  10.326538
    28  H    3.418816   2.173597   2.828778   7.416596   8.944157
    29  H    7.630953   8.367760   7.726273   3.064577   2.162585
    30  H    9.806908  10.358249   9.502352   4.974385   3.375004
    31  H   10.326533  10.558691   9.455825   5.589685   3.844802
    32  H    8.944135   8.897652   7.650157   4.775217   3.418816
    33  H    4.371513   3.321261   2.086549   5.365404   6.408326
    34  H    3.944531   2.601364   2.071965   6.487110   7.776621
    35  H    4.359373   3.197343   2.782535   6.794022   8.013296
    36  H    4.754947   3.815940   2.795972   5.714904   6.671071
    37  H    5.543277   4.294884   3.438526   7.121785   8.085243
    38  H    6.408212   5.935813   4.580916   4.317875   4.371459
    39  H    7.776538   7.480985   6.153652   4.592893   3.944471
    40  H    8.013518   7.671221   6.345245   4.935643   4.359588
    41  H    6.671261   6.147792   4.808235   4.676166   4.755039
    42  H    8.085273   7.471366   6.075133   5.839784   5.543378
                   11         12         13         14         15
    11  C    0.000000
    12  C    8.230084   0.000000
    13  C    9.410410   1.393348   0.000000
    14  C    9.534291   2.427796   1.401600   0.000000
    15  C    8.526141   2.836292   2.436851   1.392977   0.000000
    16  C    2.442096   8.603137   9.935870  10.385308   9.628542
    17  C    2.785055   9.935865  11.250079  11.632834  10.802164
    18  C    2.396320  10.385298  11.632829  11.855025  10.893582
    19  C    1.399185   9.628524  10.802152  10.893574   9.846946
    20  C    6.517884   4.941047   5.204586   4.417189   3.030407
    21  C    6.903488   5.683578   5.864737   5.009434   3.687493
    22  C    2.512658   8.222594   9.145246   8.897545   7.666165
    23  C    3.365489   8.743458   9.583497   9.234225   7.958815
    24  H    4.017714   5.965665   6.733489   6.370754   5.110745
    25  H    8.367742   1.085151   2.162906   3.416537   3.921435
    26  H   10.358237   2.146895   1.085074   2.157930   3.413551
    27  H   10.558693   3.405724   2.155324   1.085272   2.141127
    28  H    8.897671   3.920176   3.415669   2.151966   1.084064
    29  H    3.426553   8.428756   9.798884  10.386563   9.759697
    30  H    3.870059  10.733062  12.074524  12.531079  11.755201
    31  H    3.379809  11.462660  12.701685  12.896134  11.905540
    32  H    2.173594  10.219748  11.322408  11.290204  10.159742
    33  H    5.935898   5.660808   6.050647   5.341777   3.976918
    34  H    7.481040   4.978366   4.983973   4.002572   2.648775
    35  H    7.671044   5.321844   5.333867   4.426746   3.241473
    36  H    6.147627   5.974083   6.356205   5.684284   4.410849
    37  H    7.471359   6.664239   6.735734   5.748555   4.426150
    38  H    3.321245   7.782975   8.609767   8.266066   7.002201
    39  H    2.601337   9.124908  10.075693   9.852485   8.630730
    40  H    3.197445   9.354794  10.267808  10.008339   8.779003
    41  H    3.815945   8.029245   8.809574   8.424713   7.156640
    42  H    4.294941   9.472296  10.216732   9.742460   8.412584
                   16         17         18         19         20
    16  C    0.000000
    17  C    1.393347   0.000000
    18  C    2.427797   1.401600   0.000000
    19  C    2.836294   2.436852   1.392980   0.000000
    20  C    8.222629   9.145271   8.897560   7.666168   0.000000
    21  C    8.743332   9.583372   9.234118   7.958721   1.529608
    22  C    4.941043   5.204578   4.417184   3.030400   5.046983
    23  C    5.683698   5.864816   5.009454   3.687470   5.193995
    24  H    5.965658   6.733475   6.370738   5.110725   2.565877
    25  H    8.428751   9.798875  10.386550   9.759676   5.871312
    26  H   10.733060  12.074519  12.531070  11.755185   6.273184
    27  H   11.462670  12.701690  12.896135  11.905534   5.096338
    28  H   10.219774  11.322429  11.290221  10.159752   2.779230
    29  H    1.085152   2.162908   3.416539   3.921438   8.670675
    30  H    2.146896   1.085075   2.157928   3.413552  10.195192
    31  H    3.405724   2.155324   1.085272   2.141130   9.801949
    32  H    3.920178   3.415672   2.151971   1.084064   7.742111
    33  H    7.783100   8.609877   8.266150   7.002262   1.092464
    34  H    9.125005  10.075775   9.852543   8.630766   1.091860
    35  H    9.354549  10.267572  10.008139   8.778830   2.177519
    36  H    8.029038   8.809365   8.424525   7.156470   2.183305
    37  H    9.472255  10.216694   9.742440   8.412575   2.159085
    38  H    5.660751   6.050606   5.341765   3.976921   4.325891
    39  H    4.978298   4.983916   4.002547   2.648771   6.015864
    40  H    5.322072   5.334024   4.426794   3.241453   6.129789
    41  H    5.974182   6.356247   5.684255   4.410775   4.452814
    42  H    6.664360   6.735838   5.748621   4.426177   5.489167
                   21         22         23         24         25
    21  C    0.000000
    22  C    5.193913   0.000000
    23  C    5.585674   1.529610   0.000000
    24  H    3.026071   2.565885   3.025950   0.000000
    25  H    6.609353   8.670632   9.254870   6.589529   0.000000
    26  H    6.895218  10.195163  10.644746   7.806872   2.487712
    27  H    5.577392   9.801939  10.086470   7.250476   4.307757
    28  H    3.283703   7.742124   7.932336   5.191576   5.005316
    29  H    9.254734   5.871307   6.609501   6.589525   8.122147
    30  H   10.644616   6.273177   6.895302   7.806859  10.515184
    31  H   10.086367   5.096333   5.577380   7.250458  11.471153
    32  H    7.932254   2.779221   3.283590   5.191548  10.443979
    33  H    2.185491   4.325948   4.247094   2.027853   6.517654
    34  H    2.176222   6.015886   5.988831   3.570254   5.985241
    35  H    1.094113   6.129650   6.625840   3.918858   6.274333
    36  H    1.094570   4.452644   5.085994   2.569067   6.790786
    37  H    1.094644   5.489173   5.696058   3.591769   7.624390
    38  H    4.246971   1.092463   2.185488   2.027948   8.317534
    39  H    5.988713   1.091862   2.176225   3.570306   9.528722
    40  H    6.625870   2.177525   1.094111   3.918754   9.782302
    41  H    5.086108   2.183307   1.094571   2.568888   8.587198
    42  H    5.695973   2.159083   1.094644   3.591621  10.057959
                   26         27         28         29         30
    26  H    0.000000
    27  H    2.478200   0.000000
    28  H    4.301995   2.463242   0.000000
    29  H   10.515186  11.471167  10.444008   0.000000
    30  H   12.854844  13.607578  12.314252   2.487716   0.000000
    31  H   13.607568  13.929362  12.263982   4.307759   2.478198
    32  H   12.314228  12.263968  10.363525   5.005319   4.301998
    33  H    7.124239   6.041467   3.745011   8.317675   9.671337
    34  H    6.002323   4.521986   2.137051   9.528837  11.115644
    35  H    6.301165   4.904043   2.825306   9.782035  11.306845
    36  H    7.392862   6.352880   4.195881   8.586982   9.866765
    37  H    7.745710   6.181805   3.801010  10.057907  11.293000
    38  H    9.671220   9.127333   7.008812   6.517584   7.124196
    39  H   11.115553  10.757831   8.701080   5.985162   6.002265
    40  H   11.307092  10.890499   8.815526   6.274605   6.301327
    41  H    9.866980   9.256102   7.121617   6.790924   7.392911
    42  H   11.293041  10.528213   8.253714   7.624530   7.745823
                   31         32         33         34         35
    31  H    0.000000
    32  H    2.463249   0.000000
    33  H    9.127407   7.008842   0.000000
    34  H   10.757881   8.701087   1.744183   0.000000
    35  H   10.890308   8.815382   3.093168   2.531896   0.000000
    36  H    9.255920   7.121466   2.555958   3.090809   1.771017
    37  H   10.528198   8.253716   2.512679   2.505613   1.772575
    38  H    6.041469   3.745044   3.727385   5.336285   5.164704
    39  H    4.521977   2.137102   5.336332   7.006696   6.890247
    40  H    4.904025   2.825113   5.164880   6.890434   7.654049
    41  H    6.352813   4.195720   3.440932   5.149200   6.128509
    42  H    6.181853   3.800974   4.530541   6.231439   6.766996
                   36         37         38         39         40
    36  H    0.000000
    37  H    1.774520   0.000000
    38  H    3.440733   4.530506   0.000000
    39  H    5.148993   6.231413   1.744194   0.000000
    40  H    6.128415   6.767101   3.093167   2.531875   0.000000
    41  H    4.770233   5.222298   2.555982   3.090813   1.771010
    42  H    5.222098   5.603399   2.512646   2.505644   1.772575
                   41         42
    41  H    0.000000
    42  H    1.774522   0.000000
 Stoichiometry    C19H19N2S2(1+)
 Framework group  C1[X(C19H19N2S2)]
 Deg. of freedom   120
 Full point group                 C1      NOp   1
 Largest Abelian subgroup         C1      NOp   1
 Largest concise Abelian subgroup C1      NOp   1
                         Standard orientation:                         
 ---------------------------------------------------------------------
 Center     Atomic      Atomic             Coordinates (Angstroms)
 Number     Number       Type             X           Y           Z
 ---------------------------------------------------------------------
      1          6           0       -1.259214    0.216698   -0.039367
      2          6           0        0.000003    0.828935   -0.000122
      3          6           0        1.259209    0.216684    0.039249
      4          7           0        2.433464    0.904848    0.145998
      5         16           0       -1.557561   -1.512152    0.053882
      6          6           0       -3.297665   -1.258824   -0.027283
      7          6           0       -3.589904    0.108866   -0.118299
      8          7           0       -2.433474    0.904863   -0.146106
      9         16           0        1.557549   -1.512171   -0.053923
     10          6           0        3.297657   -1.258850    0.027304
     11          6           0        3.589900    0.108842    0.118251
     12          6           0       -4.301571   -2.224422   -0.003624
     13          6           0       -5.624645   -1.792125   -0.066975
     14          6           0       -5.925643   -0.425687   -0.149009
     15          6           0       -4.920394    0.538274   -0.174272
     16          6           0        4.301563   -2.224450    0.003718
     17          6           0        5.624635   -1.792149    0.067066
     18          6           0        5.925635   -0.425707    0.149021
     19          6           0        4.920384    0.538258    0.174213
     20          6           0       -2.510348    2.373529   -0.257226
     21          6           0       -2.566433    3.073786    1.101522
     22          6           0        2.510339    2.373497    0.257299
     23          6           0        2.566508    3.073929   -1.101357
     24          1           0        0.000014    1.909040   -0.000214
     25          1           0       -4.060576   -3.280313    0.063971
     26          1           0       -6.427238   -2.522132   -0.049094
     27          1           0       -6.962056   -0.106514   -0.191342
     28          1           0       -5.176748    1.590213   -0.228130
     29          1           0        4.060566   -3.280345   -0.063815
     30          1           0        6.427230   -2.522156    0.049231
     31          1           0        6.962048   -0.106532    0.191339
     32          1           0        5.176733    1.590201    0.228019
     33          1           0       -1.657488    2.708489   -0.852128
     34          1           0       -3.398115    2.597174   -0.852215
     35          1           0       -3.441185    2.752064    1.674572
     36          1           0       -1.673838    2.863356    1.699082
     37          1           0       -2.634230    4.156364    0.954302
     38          1           0        1.657436    2.708379    0.852183
     39          1           0        3.398074    2.597059    0.852370
     40          1           0        3.441334    2.752344   -1.674368
     41          1           0        1.673988    2.863510   -1.699033
     42          1           0        2.634214    4.156493   -0.953990
 ---------------------------------------------------------------------
 Rotational constants (GHZ):           0.5197631           0.1187459           0.0985340
 Standard basis: 6-311+G(d) (5D, 7F)
 There are   602 symmetry adapted cartesian basis functions of A   symmetry.
 There are   579 symmetry adapted basis functions of A   symmetry.
   579 basis functions,   951 primitive gaussians,   602 cartesian basis functions
    89 alpha electrons       89 beta electrons
       nuclear repulsion energy      2127.8579715027 Hartrees.
 NAtoms=   42 NActive=   42 NUniq=   42 SFac= 1.00D+00 NAtFMM=   60 NAOKFM=F Big=F
 Integral buffers will be    131072 words long.
 Regular integral format.
 Two-electron integral symmetry is turned on.
 ------------------------------------------------------------------------------
 Polarizable Continuum Model (PCM)
 =================================
 Model                : PCM.
 Atomic radii         : SMD-Coulomb.
 Polarization charges : Total charges.
 Charge compensation  : None.
 Solution method      : On-the-fly selection.
 Cavity type          : VdW (van der Waals Surface) (Alpha=1.000).
 Cavity algorithm     : GePol (No added spheres)
                        Default sphere list used, NSphG=   42.
                        Lebedev-Laikov grids with approx.  5.0 points / Ang**2.
                        Smoothing algorithm: York/Karplus (Gamma=1.0000).
                        Polarization charges: spherical gaussians, with
                                              point-specific exponents (IZeta= 3).
                        Self-potential: point-specific (ISelfS= 7).
                        Self-field    : sphere-specific E.n sum rule (ISelfD= 2).
 Solvent              : Ethanol, Eps=  24.852000 Eps(inf)=   1.852593
 ------------------------------------------------------------------------------
 ------------------------------------------------------------------------------
 Atomic radii for non-electrostatic terms: SMD-CDS.
 ------------------------------------------------------------------------------
 Nuclear repulsion after PCM non-electrostatic terms =     2127.8526197948 Hartrees.
 One-electron integrals computed using PRISM.
 NBasis=   579 RedAO= T EigKep=  1.01D-06  NBF=   579
 NBsUse=   575 1.00D-06 EigRej=  7.75D-07 NBFU=   575
 ExpMin= 4.05D-02 ExpMax= 9.34D+04 ExpMxC= 3.17D+03 IAcc=3 IRadAn=         5 AccDes= 0.00D+00
 Harris functional with IExCor=  402 and IRadAn=       5 diagonalized for initial guess.
 HarFok:  IExCor=  402 AccDes= 0.00D+00 IRadAn=         5 IDoV= 1 UseB2=F ITyADJ=14
 ICtDFT=  3500011 ScaDFX=  1.000000  1.000000  1.000000  1.000000
 FoFCou: FMM=F IPFlag=           0 FMFlag=      100000 FMFlg1=           0
         NFxFlg=           0 DoJE=T BraDBF=F KetDBF=T FulRan=T
         wScrn=  0.000000 ICntrl=       500 IOpCl=  0 I1Cent=   200000004 NGrid=           0
         NMat0=    1 NMatS0=      1 NMatT0=    0 NMatD0=    1 NMtDS0=    0 NMtDT0=    0
 Petite list used in FoFCou.
 Requested convergence on RMS density matrix=1.00D-08 within 128 cycles.
 Requested convergence on MAX density matrix=1.00D-06.
 Requested convergence on             energy=1.00D-06.
 No special actions if energy rises.
 Inv3:  Mode=1 IEnd=    30470907.
 Iteration    1 A*A^-1 deviation from unit magnitude is 3.77D-15 for   3042.
 Iteration    1 A*A^-1 deviation from orthogonality  is 1.78D-15 for   1979     64.
 Iteration    1 A^-1*A deviation from unit magnitude is 3.77D-15 for   3042.
 Iteration    1 A^-1*A deviation from orthogonality  is 5.08D-09 for   2629   2551.
 Iteration    2 A*A^-1 deviation from unit magnitude is 2.44D-15 for   3057.
 Iteration    2 A*A^-1 deviation from orthogonality  is 5.19D-15 for   1512    703.
 Iteration    2 A^-1*A deviation from unit magnitude is 1.78D-15 for   3020.
 Iteration    2 A^-1*A deviation from orthogonality  is 1.44D-15 for    911     15.
 Error on total polarization charges =  0.06206
 SCF Done:  E(RB3LYP) =  -1641.47414668     A.U. after   15 cycles
            NFock= 15  Conv=0.20D-08     -V/T= 2.0031
 SMD-CDS (non-electrostatic) energy       (kcal/mol) =      -3.36
 (included in total energy above)
 DoSCS=F DFT=T ScalE2(SS,OS)=  1.000000  1.000000
 ExpMin= 4.05D-02 ExpMax= 9.34D+04 ExpMxC= 3.17D+03 IAcc=3 IRadAn=         5 AccDes= 0.00D+00
 HarFok:  IExCor=  205 AccDes= 0.00D+00 IRadAn=         5 IDoV=-2 UseB2=F ITyADJ=14
 ICtDFT= 12500011 ScaDFX=  1.000000  1.000000  1.000000  1.000000
 GSVD:  LWork=       -1209 too small for GESVD, short by        5270 words or        5270 for optimal perf.
 Range of M.O.s used for correlation:    32   575
 NBasis=   579 NAE=    89 NBE=    89 NFC=    31 NFV=     0
 NROrb=    544 NOA=    58 NOB=    58 NVA=   486 NVB=   486

 **** Warning!!: The largest alpha MO coefficient is  0.18259550D+03

 NEqPCM:  Using non-equilibrium solvation (IEInf=1, Eps=  24.8520, EpsInf=   1.8526)
 Inv3:  Mode=1 IEnd=    30470907.
 Iteration    1 A*A^-1 deviation from unit magnitude is 3.77D-15 for   3019.
 Iteration    1 A*A^-1 deviation from orthogonality  is 2.33D-15 for   2220    596.
 Iteration    1 A^-1*A deviation from unit magnitude is 3.66D-15 for   1790.
 Iteration    1 A^-1*A deviation from orthogonality  is 3.09D-15 for   1067    948.
 Orbital symmetries:
       Occupied  (A) (A) (A) (A) (A) (A) (A) (A) (A) (A) (A) (A)
                 (A) (A) (A) (A) (A) (A) (A) (A) (A) (A) (A) (A)
                 (A) (A) (A) (A) (A) (A) (A) (A) (A) (A) (A) (A)
                 (A) (A) (A) (A) (A) (A) (A) (A) (A) (A) (A) (A)
                 (A) (A) (A) (A) (A) (A) (A) (A) (A) (A) (A) (A)
                 (A) (A) (A) (A) (A) (A) (A) (A) (A) (A) (A) (A)
                 (A) (A) (A) (A) (A) (A) (A) (A) (A) (A) (A) (A)
                 (A) (A) (A) (A) (A)
       Virtual   (A) (A) (A) (A) (A) (A) (A) (A) (A) (A) (A) (A)
                 (A) (A) (A) (A) (A) (A) (A) (A) (A) (A) (A) (A)
                 (A) (A) (A) (A) (A) (A) (A) (A) (A) (A) (A) (A)
                 (A) (A) (A) (A) (A) (A) (A) (A) (A) (A) (A) (A)
                 (A) (A) (A) (A) (A) (A) (A) (A) (A) (A) (A) (A)
                 (A) (A) (A) (A) (A) (A) (A) (A) (A) (A) (A) (A)
                 (A) (A) (A) (A) (A) (A) (A) (A) (A) (A) (A) (A)
                 (A) (A) (A) (A) (A) (A) (A) (A) (A) (A) (A) (A)
                 (A) (A) (A) (A) (A) (A) (A) (A) (A) (A) (A) (A)
                 (A) (A) (A) (A) (A) (A) (A) (A) (A) (A) (A) (A)
                 (A) (A) (A) (A) (A) (A) (A) (A) (A) (A) (A) (A)
                 (A) (A) (A) (A) (A) (A) (A) (A) (A) (A) (A) (A)
                 (A) (A) (A) (A) (A) (A) (A) (A) (A) (A) (A) (A)
                 (A) (A) (A) (A) (A) (A) (A) (A) (A) (A) (A) (A)
                 (A) (A) (A) (A) (A) (A) (A) (A) (A) (A) (A) (A)
                 (A) (A) (A) (A) (A) (A) (A) (A) (A) (A) (A) (A)
                 (A) (A) (A) (A) (A) (A) (A) (A) (A) (A) (A) (A)
                 (A) (A) (A) (A) (A) (A) (A) (A) (A) (A) (A) (A)
                 (A) (A) (A) (A) (A) (A) (A) (A) (A) (A) (A) (A)
                 (A) (A) (A) (A) (A) (A) (A) (A) (A) (A) (A) (A)
                 (A) (A) (A) (A) (A) (A) (A) (A) (A) (A) (A) (A)
                 (A) (A) (A) (A) (A) (A) (A) (A) (A) (A) (A) (A)
                 (A) (A) (A) (A) (A) (A) (A) (A) (A) (A) (A) (A)
                 (A) (A) (A) (A) (A) (A) (A) (A) (A) (A) (A) (A)
                 (A) (A) (A) (A) (A) (A) (A) (A) (A) (A) (A) (A)
                 (A) (A) (A) (A) (A) (A) (A) (A) (A) (A) (A) (A)
                 (A) (A) (A) (A) (A) (A) (A) (A) (A) (A) (A) (A)
                 (A) (A) (A) (A) (A) (A) (A) (A) (A) (A) (A) (A)
                 (A) (A) (A) (A) (A) (A) (A) (A) (A) (A) (A) (A)
                 (A) (A) (A) (A) (A) (A) (A) (A) (A) (A) (A) (A)
                 (A) (A) (A) (A) (A) (A) (A) (A) (A) (A) (A) (A)
                 (A) (A) (A) (A) (A) (A) (A) (A) (A) (A) (A) (A)
                 (A) (A) (A) (A) (A) (A) (A) (A) (A) (A) (A) (A)
                 (A) (A) (A) (A) (A) (A) (A) (A) (A) (A) (A) (A)
                 (A) (A) (A) (A) (A) (A) (A) (A) (A) (A) (A) (A)
                 (A) (A) (A) (A) (A) (A) (A) (A) (A) (A) (A) (A)
                 (A) (A) (A) (A) (A) (A) (A) (A) (A) (A) (A) (A)
                 (A) (A) (A) (A) (A) (A) (A) (A) (A) (A) (A) (A)
                 (A) (A) (A) (A) (A) (A) (A) (A) (A) (A) (A) (A)
                 (A) (A) (A) (A) (A) (A) (A) (A) (A) (A) (A) (A)
                 (A) (A) (A) (A) (A) (A)
   600 initial guesses have been made.
 Convergence on wavefunction:    0.001000000000000
 Iteration     1 Dimension   600 NMult     0 NNew    600
 CISAX will form   600 AO SS matrices at one time.
 New state      2 was old state      3
 New state      3 was old state      2
 New state      6 was old state      7
 New state      7 was old state      6
 New state     10 was old state     11
 New state     11 was old state     10
 New state     13 was old state     15
 New state     14 was old state     13
 New state     15 was old state     21
 New state     18 was old state     20
 New state     19 was old state     14
 New state     20 was old state     23
 New state     21 was old state     18
 New state     22 was old state     24
 New state     23 was old state     19
 New state     24 was old state     26
 New state     25 was old state     32
 New state     26 was old state     22
 New state     27 was old state     29
 New state     28 was old state     33
 New state     29 was old state     25
 New state     31 was old state     40
 New state     32 was old state     41
 New state     33 was old state     36
 New state     34 was old state     31
 New state     35 was old state     37
 New state     36 was old state     38
 New state     37 was old state     47
 New state     38 was old state     46
 New state     39 was old state     42
 New state     40 was old state     44
 New state     41 was old state     50
 New state     42 was old state     34
 New state     44 was old state     53
 New state     46 was old state     48
 New state     47 was old state     55
 New state     48 was old state     49
 New state     49 was old state     51
 New state     50 was old state     39
 New state     51 was old state     52
 New state     52 was old state     54
 New state     53 was old state     75
 New state     54 was old state     65
 New state     55 was old state     63
 New state     56 was old state     60
 New state     57 was old state     58
 New state     58 was old state     62
 New state     59 was old state     57
 New state     60 was old state     61
 New state     61 was old state     82
 New state     62 was old state     59
 New state     63 was old state     72
 New state     64 was old state     89
 New state     65 was old state     66
 New state     66 was old state     64
 New state     67 was old state     56
 New state     68 was old state     71
 New state     70 was old state     67
 New state     71 was old state     68
 New state     72 was old state     70
 New state     74 was old state     76
 New state     75 was old state     83
 New state     76 was old state    102
 New state     77 was old state     74
 New state     78 was old state     77
 New state     79 was old state     86
 New state     80 was old state     79
 New state     82 was old state     84
 New state     83 was old state    101
 New state     84 was old state     98
 New state     85 was old state     88
 New state     86 was old state     87
 New state     87 was old state     99
 New state     88 was old state     78
 New state     89 was old state     90
 New state     90 was old state     92
 New state     91 was old state     93
 New state     92 was old state     80
 New state     93 was old state     95
 New state     94 was old state     97
 New state     95 was old state    104
 New state     97 was old state     85
 New state     98 was old state    112
 New state     99 was old state    120
 New state    100 was old state    103
 New state    101 was old state     91
 New state    102 was old state     94
 New state    103 was old state    105
 New state    104 was old state    113
 New state    105 was old state    111
 New state    106 was old state    100
 New state    107 was old state    109
 New state    108 was old state    110
 New state    109 was old state    138
 New state    110 was old state    151
 New state    111 was old state    115
 New state    112 was old state    114
 New state    113 was old state    125
 New state    114 was old state    124
 New state    115 was old state    116
 New state    116 was old state    119
 New state    118 was old state    127
 New state    119 was old state    179
 New state    120 was old state    121
 New state    121 was old state    133
 New state    122 was old state    118
 New state    123 was old state    136
 New state    124 was old state    123
 New state    125 was old state    122
 New state    126 was old state    137
 New state    127 was old state    131
 New state    128 was old state    141
 New state    129 was old state    135
 New state    130 was old state    128
 New state    131 was old state    126
 New state    132 was old state    130
 New state    133 was old state    142
 New state    134 was old state    144
 New state    135 was old state    129
 New state    136 was old state    154
 New state    137 was old state    132
 New state    138 was old state    158
 New state    139 was old state    174
 New state    141 was old state    152
 New state    142 was old state    134
 New state    143 was old state    139
 New state    144 was old state    153
 New state    145 was old state    150
 New state    146 was old state    145
 New state    147 was old state    148
 New state    148 was old state    200
 New state    149 was old state    159
 New state    150 was old state    228
 Iteration     2 Dimension   900 NMult   600 NNew    300
 New state      6 was old state      7
 New state      7 was old state      6
 New state     20 was old state     21
 New state     21 was old state     20
 New state     22 was old state     24
 New state     23 was old state     22
 New state     24 was old state     23
 New state     25 was old state     26
 New state     26 was old state     33
 New state     27 was old state     25
 New state     28 was old state     27
 New state     29 was old state     34
 New state     30 was old state     28
 New state     31 was old state     29
 New state     32 was old state     30
 New state     33 was old state     31
 New state     34 was old state     32
 New state     35 was old state     38
 New state     37 was old state     43
 New state     38 was old state     35
 New state     39 was old state     42
 New state     40 was old state     37
 New state     41 was old state     39
 New state     42 was old state     52
 New state     43 was old state     41
 New state     44 was old state     40
 New state     45 was old state     46
 New state     46 was old state     44
 New state     47 was old state     45
 New state     48 was old state     47
 New state     49 was old state     50
 New state     50 was old state     48
 New state     51 was old state     49
 New state     52 was old state     51
 New state     55 was old state     57
 New state     57 was old state     55
 New state     60 was old state     61
 New state     61 was old state     69
 New state     62 was old state     60
 New state     63 was old state     62
 New state     65 was old state     63
 New state     66 was old state     68
 New state     67 was old state     65
 New state     68 was old state     67
 New state     69 was old state     66
 New state     70 was old state     71
 New state     71 was old state     70
 New state     75 was old state     76
 New state     76 was old state     83
 New state     77 was old state     75
 New state     78 was old state     90
 New state     79 was old state     77
 New state     80 was old state     79
 New state     81 was old state     78
 New state     82 was old state     92
 New state     83 was old state     80
 New state     84 was old state     81
 New state     85 was old state     82
 New state     86 was old state     84
 New state     87 was old state     85
 New state     88 was old state     87
 New state     89 was old state     86
 New state     90 was old state     88
 New state     91 was old state     89
 New state     92 was old state     99
 New state     93 was old state     97
 New state     94 was old state     91
 New state     95 was old state     94
 New state     96 was old state     93
 New state     97 was old state     98
 New state     98 was old state     95
 New state     99 was old state     96
 New state    101 was old state    102
 New state    102 was old state    101
 New state    104 was old state    118
 New state    107 was old state    104
 New state    108 was old state    114
 New state    109 was old state    107
 New state    110 was old state    108
 New state    111 was old state    109
 New state    112 was old state    123
 New state    114 was old state    111
 New state    117 was old state    112
 New state    118 was old state    110
 New state    120 was old state    121
 No map to state    121
 New state    122 was old state    117
 New state    123 was old state    120
 New state    124 was old state    128
 New state    125 was old state    138
 New state    126 was old state    130
 New state    127 was old state    122
 New state    128 was old state    125
 New state    129 was old state    126
 New state    130 was old state    127
 New state    131 was old state    129
 New state    132 was old state    131
 New state    133 was old state    132
 New state    134 was old state    133
 New state    137 was old state    134
 New state    138 was old state    137
 New state    142 was old state    144
 New state    143 was old state    146
 New state    144 was old state    145
 New state    145 was old state    143
 New state    146 was old state    142
 New state    147 was old state    148
 New state    148 was old state    147
 No map to state    149
 Iteration     3 Dimension  1200 NMult   900 NNew    300
 New state     28 was old state     29
 New state     29 was old state     28
 New state     30 was old state     31
 New state     31 was old state     30
 New state    106 was old state    107
 New state    107 was old state    106
 Iteration     4 Dimension  1466 NMult  1200 NNew    266
 Iteration     5 Dimension  1516 NMult  1466 NNew     50
 Iteration     6 Dimension  1520 NMult  1516 NNew      4
 ***********************************************************************
 Excited states from <AA,BB:AA,BB> singles matrix:
 ***********************************************************************
 
 Ground to excited state transition densities written to RWF  633
 Ground to excited state transition electric dipole moments (Au):
       state          X           Y           Z        Dip. S.      Osc.
         1        -3.9752     -0.0000     -0.0359     15.8035      1.2235
         2        -0.0644      0.0000     -0.0599      0.0077      0.0007
         3        -0.0000      0.4814     -0.0000      0.2317      0.0232
         4        -0.2688     -0.0000     -0.0204      0.0727      0.0075
         5         0.0000     -0.6054      0.0000      0.3665      0.0396
         6        -0.0001     -0.0629      0.0000      0.0040      0.0004
         7         0.5692     -0.0000      0.0541      0.3270      0.0363
         8        -0.0000     -0.8868      0.0000      0.7864      0.0921
         9         0.1030     -0.0000      0.0339      0.0118      0.0014
        10        -0.0000     -0.0142      0.0000      0.0002      0.0000
        11         0.2037     -0.0000     -0.0286      0.0423      0.0053
        12        -0.0000      0.0122     -0.0000      0.0001      0.0000
        13         0.2727      0.0000     -0.0130      0.0746      0.0096
        14        -1.3155      0.0000     -0.0076      1.7306      0.2257
        15        -0.0001      0.0594      0.0000      0.0035      0.0005
        16         0.0001      0.0670     -0.0000      0.0045      0.0006
        17         0.6358      0.0000     -0.1591      0.4295      0.0586
        18        -0.0005      0.1958      0.0000      0.0383      0.0053
        19        -0.7285      0.0001     -0.0051      0.5308      0.0736
        20         0.0006     -1.1770      0.0003      1.3853      0.1923
        21        -0.4053     -0.0023     -0.1143      0.1774      0.0246
        22        -0.0000     -0.6639      0.0000      0.4408      0.0620
        23         0.0713     -0.0001     -0.1385      0.0243      0.0034
        24         0.0001     -0.1381      0.0000      0.0191      0.0027
        25         0.0915     -0.0001     -0.0384      0.0098      0.0014
        26        -0.0001      0.0694     -0.0001      0.0048      0.0007
        27        -0.0922     -0.0001      0.2154      0.0549      0.0080
        28        -1.1262      0.0002      0.0005      1.2682      0.1873
        29        -0.0027     -0.0593      0.0000      0.0035      0.0005
        30        -1.5995     -0.0007     -0.1119      2.5711      0.3848
        31         0.0753     -0.0147      0.0053      0.0059      0.0009
        32        -0.0001     -0.1893     -0.0000      0.0358      0.0054
        33        -0.0005     -0.0628     -0.0000      0.0039      0.0006
        34        -0.7770      0.0001      0.0424      0.6055      0.0930
        35        -0.0001     -0.3236      0.0001      0.1047      0.0161
        36        -0.5244     -0.0001     -0.2073      0.3179      0.0491
        37        -0.0000     -0.0857     -0.0001      0.0074      0.0011
        38        -0.1018     -0.0001     -0.0788      0.0166      0.0026
        39        -0.4998      0.0000      0.1204      0.2643      0.0412
        40         0.2094      0.0000     -0.0318      0.0449      0.0070
        41         0.1681     -0.0000     -0.1625      0.0546      0.0086
        42        -1.3210      0.0000     -0.0961      1.7542      0.2776
        43         0.2580     -0.0001      0.1571      0.0912      0.0145
        44        -0.0002     -0.0801     -0.0001      0.0064      0.0010
        45        -0.0000     -0.9871      0.0000      0.9743      0.1558
        46         0.0001      0.1535      0.0000      0.0235      0.0038
        47        -0.0647     -0.0053     -0.0369      0.0056      0.0009
        48        -0.0011      0.3143     -0.0007      0.0988      0.0160
        49         0.0000     -0.0702     -0.0000      0.0049      0.0008
        50        -0.1065      0.0001      0.0006      0.0114      0.0019
        51         0.0002      0.0354     -0.0000      0.0013      0.0002
        52        -0.0792      0.0000      0.1611      0.0322      0.0053
        53         0.0000     -0.1591      0.0000      0.0253      0.0042
        54        -0.0000      0.0826     -0.0000      0.0068      0.0011
        55        -0.1312     -0.0001     -0.0622      0.0211      0.0035
        56         0.0006      0.1075     -0.0001      0.0116      0.0019
        57         0.2437     -0.0003      0.0001      0.0594      0.0099
        58         0.1588      0.0001      0.1324      0.0428      0.0072
        59         0.1901     -0.0000      0.2087      0.0797      0.0134
        60        -0.1009     -0.0001     -0.1388      0.0295      0.0050
        61         0.0000      0.2577      0.0000      0.0664      0.0112
        62         0.0001     -0.2021      0.0001      0.0409      0.0069
        63         0.4598     -0.0000      0.1141      0.2244      0.0382
        64        -0.0001     -0.2774     -0.0000      0.0769      0.0131
        65        -0.0001     -0.0702     -0.0000      0.0049      0.0008
        66        -1.0753     -0.0000     -0.0294      1.1571      0.1979
        67        -0.1186     -0.0000      0.2585      0.0809      0.0139
        68         0.0000      0.0397     -0.0000      0.0016      0.0003
        69         0.0000      0.0822      0.0000      0.0068      0.0012
        70        -0.0000     -0.2001      0.0000      0.0400      0.0069
        71        -0.0382     -0.0001     -0.1147      0.0146      0.0025
        72        -0.0610     -0.0008      0.1733      0.0337      0.0059
        73         0.0005     -0.1562     -0.0007      0.0244      0.0042
        74        -0.0003     -0.2225     -0.0002      0.0495      0.0086
        75         0.3652     -0.0003      0.0993      0.1432      0.0250
        76         0.0002      0.0977      0.0000      0.0095      0.0017
        77         0.0847     -0.0001     -0.0355      0.0084      0.0015
        78         0.0001     -0.2568     -0.0000      0.0659      0.0116
        79         0.0109     -0.0000      0.2139      0.0459      0.0081
        80        -0.4607     -0.0000     -0.0829      0.2192      0.0388
        81        -0.0000      0.0288      0.0000      0.0008      0.0001
        82        -0.3608      0.0000      0.1685      0.1586      0.0281
        83         0.0000     -0.1481     -0.0000      0.0219      0.0039
        84        -0.0149      0.0002      0.0394      0.0018      0.0003
        85         0.0000      0.0143     -0.0000      0.0002      0.0000
        86        -0.0000      0.2478      0.0001      0.0614      0.0110
        87         0.1509     -0.0002      0.1621      0.0490      0.0088
        88        -0.0001      0.1967      0.0000      0.0387      0.0070
        89        -0.1700     -0.0002      0.0669      0.0334      0.0060
        90        -0.1068      0.0002     -0.0127      0.0116      0.0021
        91        -0.0001     -0.9839     -0.0000      0.9680      0.1758
        92         0.0000      1.0136     -0.0000      1.0273      0.1869
        93         0.0509     -0.0000     -0.0515      0.0052      0.0010
        94        -0.0000     -1.0332      0.0000      1.0675      0.1948
        95         0.0000      0.0625     -0.0000      0.0039      0.0007
        96         0.1107     -0.0000     -0.1165      0.0258      0.0047
        97        -0.1275      0.0000      0.1172      0.0300      0.0055
        98         0.2931     -0.0001     -0.1254      0.1016      0.0188
        99         0.0001      0.2518     -0.0000      0.0634      0.0117
       100        -0.9675      0.0000     -0.0721      0.9412      0.1745
       101         0.0004      0.1389     -0.0001      0.0193      0.0036
       102         0.0002     -0.1386      0.0007      0.0192      0.0036
       103        -0.1080     -0.0005     -0.1861      0.0463      0.0086
       104        -0.6707      0.0001      0.1144      0.4630      0.0861
       105        -0.1546      0.0001     -0.1295      0.0407      0.0076
       106        -0.0016      0.5173     -0.0000      0.2676      0.0501
       107         0.3853      0.0021      0.0119      0.1486      0.0278
       108        -0.0003     -0.2441      0.0000      0.0596      0.0112
       109         0.4124      0.0001     -0.1508      0.1928      0.0362
       110         0.0000      0.1953     -0.0000      0.0381      0.0072
       111        -0.0000     -0.1930     -0.0000      0.0373      0.0070
       112         0.2126     -0.0001      0.0240      0.0458      0.0086
       113         0.2873     -0.0000      0.1107      0.0948      0.0179
       114         0.0001     -0.2890     -0.0002      0.0835      0.0158
       115         0.0876      0.0004     -0.1223      0.0226      0.0043
       116         0.0001     -0.5881     -0.0000      0.3459      0.0657
       117        -0.0355      0.0006     -0.0569      0.0045      0.0009
       118         0.0788      0.0004      0.0319      0.0072      0.0014
       119         0.0186      0.0005      0.0721      0.0055      0.0011
       120        -0.0002      0.1294     -0.0003      0.0168      0.0032
       121        -0.0792     -0.0000      0.0558      0.0094      0.0018
       122         0.0000      0.0057      0.0000      0.0000      0.0000
       123         0.0000      0.2070      0.0000      0.0428      0.0082
       124        -0.0001      0.1547      0.0000      0.0239      0.0046
       125         0.0001      0.1644     -0.0000      0.0270      0.0052
       126         0.7943      0.0001     -0.0565      0.6341      0.1229
       127        -0.0002      0.1942      0.0001      0.0377      0.0073
       128        -0.0002      0.3592      0.0000      0.1290      0.0251
       129         0.0001      0.0285     -0.0001      0.0008      0.0002
       130        -0.0991     -0.0000     -0.1557      0.0341      0.0067
       131        -0.1241     -0.0002      0.0598      0.0190      0.0037
       132        -0.0513     -0.0001     -0.0647      0.0068      0.0013
       133         0.0000     -0.0471      0.0001      0.0022      0.0004
       134        -0.0359     -0.0000      0.1486      0.0234      0.0046
       135         0.0001      0.1290     -0.0000      0.0166      0.0033
       136        -0.0822      0.0001      0.0800      0.0132      0.0026
       137         0.0000     -0.1430      0.0001      0.0204      0.0040
       138         0.1294     -0.0002     -0.2090      0.0604      0.0119
       139        -0.0002     -0.1502      0.0004      0.0226      0.0045
       140         0.0001     -0.2148      0.0001      0.0461      0.0091
       141         0.1231      0.0003      0.1321      0.0326      0.0065
       142        -0.0003      0.0568      0.0008      0.0032      0.0006
       143        -0.0293     -0.0006      0.0992      0.0107      0.0021
       144         0.0768      0.0000     -0.2240      0.0561      0.0111
       145         0.0001      0.1110      0.0001      0.0123      0.0025
       146         0.0000      0.0865     -0.0001      0.0075      0.0015
       147        -0.0001      0.3793      0.0003      0.1438      0.0287
       148         0.1436     -0.0004      0.1606      0.0464      0.0093
       149        -0.2599     -0.0003      0.0338      0.0687      0.0137
       150        -0.0201      0.0001      0.0838      0.0074      0.0015
 Ground to excited state transition velocity dipole moments (Au):
       state          X           Y           Z        Dip. S.      Osc.
         1         0.4531     -0.0000      0.0044      0.2053      1.1788
         2         0.0088     -0.0000      0.0039      0.0001      0.0004
         3         0.0000     -0.0661     -0.0000      0.0044      0.0194
         4         0.0425      0.0000      0.0024      0.0018      0.0078
         5        -0.0000      0.1019     -0.0000      0.0104      0.0427
         6         0.0000      0.0059     -0.0000      0.0000      0.0001
         7        -0.0939      0.0000     -0.0093      0.0089      0.0357
         8        -0.0000      0.1576     -0.0000      0.0248      0.0942
         9        -0.0188      0.0000     -0.0055      0.0004      0.0014
        10         0.0000      0.0028     -0.0000      0.0000      0.0000
        11        -0.0368      0.0000      0.0017      0.0014      0.0048
        12         0.0000     -0.0015      0.0000      0.0000      0.0000
        13        -0.0510     -0.0000      0.0117      0.0027      0.0095
        14         0.2553     -0.0000      0.0023      0.0652      0.2222
        15         0.0000     -0.0128     -0.0000      0.0002      0.0005
        16        -0.0000     -0.0153      0.0000      0.0002      0.0008
        17        -0.1248     -0.0000      0.0367      0.0169      0.0551
        18         0.0001     -0.0339     -0.0000      0.0012      0.0037
        19         0.1423     -0.0000      0.0012      0.0203      0.0649
        20        -0.0001      0.2443     -0.0001      0.0597      0.1910
        21         0.0790      0.0005      0.0257      0.0069      0.0221
        22         0.0000      0.1436     -0.0000      0.0206      0.0651
        23        -0.0169      0.0000      0.0281      0.0011      0.0034
        24        -0.0000      0.0307     -0.0000      0.0009      0.0029
        25        -0.0177      0.0000      0.0086      0.0004      0.0012
        26         0.0000     -0.0288      0.0000      0.0008      0.0025
        27         0.0181      0.0000     -0.0472      0.0026      0.0078
        28         0.2418     -0.0000     -0.0012      0.0585      0.1759
        29         0.0006      0.0116     -0.0000      0.0001      0.0004
        30         0.3537      0.0002      0.0255      0.1257      0.3734
        31        -0.0166      0.0035     -0.0012      0.0003      0.0009
        32         0.0000      0.0379      0.0000      0.0014      0.0042
        33         0.0001      0.0134      0.0000      0.0002      0.0005
        34         0.1776     -0.0000     -0.0123      0.0317      0.0917
        35         0.0000      0.0751     -0.0000      0.0056      0.0163
        36         0.1209      0.0000      0.0518      0.0173      0.0498
        37         0.0000      0.0253      0.0000      0.0006      0.0018
        38         0.0255      0.0000      0.0160      0.0009      0.0026
        39         0.1106     -0.0000     -0.0278      0.0130      0.0371
        40        -0.0483     -0.0000      0.0098      0.0024      0.0069
        41        -0.0417      0.0000      0.0374      0.0031      0.0089
        42         0.3090     -0.0000      0.0215      0.0959      0.2694
        43        -0.0617      0.0000     -0.0444      0.0058      0.0162
        44         0.0001      0.0198      0.0000      0.0004      0.0011
        45         0.0000      0.2394     -0.0000      0.0573      0.1592
        46        -0.0000     -0.0385     -0.0000      0.0015      0.0041
        47         0.0191      0.0013      0.0045      0.0004      0.0011
        48         0.0003     -0.0781      0.0001      0.0061      0.0167
        49        -0.0000      0.0175      0.0000      0.0003      0.0008
        50         0.0272     -0.0000     -0.0004      0.0007      0.0020
        51        -0.0001     -0.0080      0.0000      0.0001      0.0002
        52         0.0192      0.0000     -0.0380      0.0018      0.0049
        53        -0.0000      0.0461     -0.0000      0.0021      0.0057
        54        -0.0000     -0.0199      0.0000      0.0004      0.0011
        55         0.0251      0.0000      0.0155      0.0009      0.0023
        56        -0.0002     -0.0255      0.0000      0.0006      0.0017
        57        -0.0552      0.0001     -0.0024      0.0030      0.0081
        58        -0.0385     -0.0000     -0.0297      0.0024      0.0062
        59        -0.0461      0.0000     -0.0551      0.0052      0.0136
        60         0.0218      0.0000      0.0338      0.0016      0.0043
        61        -0.0000     -0.0627     -0.0000      0.0039      0.0103
        62        -0.0000      0.0475     -0.0000      0.0023      0.0059
        63        -0.1184      0.0000     -0.0245      0.0146      0.0382
        64         0.0000      0.0723      0.0000      0.0052      0.0137
        65         0.0000      0.0170      0.0000      0.0003      0.0008
        66         0.2787     -0.0000      0.0088      0.0778      0.2021
        67         0.0309      0.0000     -0.0729      0.0063      0.0162
        68        -0.0000     -0.0083      0.0000      0.0001      0.0002
        69        -0.0000     -0.0191      0.0000      0.0004      0.0009
        70         0.0000      0.0538     -0.0000      0.0029      0.0074
        71         0.0084      0.0000      0.0306      0.0010      0.0026
        72         0.0158      0.0002     -0.0494      0.0027      0.0069
        73        -0.0001      0.0388      0.0002      0.0015      0.0038
        74         0.0001      0.0510      0.0001      0.0026      0.0066
        75        -0.0942      0.0001     -0.0260      0.0096      0.0243
        76        -0.0000     -0.0235     -0.0000      0.0006      0.0014
        77        -0.0224      0.0000      0.0064      0.0005      0.0014
        78        -0.0000      0.0609      0.0000      0.0037      0.0094
        79        -0.0040      0.0000     -0.0584      0.0034      0.0086
        80         0.1319      0.0000      0.0211      0.0178      0.0448
        81         0.0000     -0.0065     -0.0000      0.0000      0.0001
        82         0.1014     -0.0000     -0.0398      0.0119      0.0297
        83        -0.0000      0.0352      0.0000      0.0012      0.0031
        84         0.0037     -0.0001     -0.0123      0.0002      0.0004
        85        -0.0000     -0.0064      0.0000      0.0000      0.0001
        86         0.0000     -0.0651     -0.0000      0.0042      0.0105
        87        -0.0407      0.0000     -0.0462      0.0038      0.0094
        88         0.0000     -0.0508     -0.0000      0.0026      0.0064
        89         0.0479      0.0001     -0.0161      0.0026      0.0063
        90         0.0299     -0.0000      0.0085      0.0010      0.0024
        91         0.0000      0.2566      0.0000      0.0658      0.1612
        92         0.0000     -0.2652      0.0000      0.0703      0.1718
        93        -0.0177      0.0000      0.0139      0.0005      0.0012
        94         0.0000      0.2873     -0.0000      0.0825      0.2010
        95        -0.0000     -0.0211      0.0000      0.0004      0.0011
        96        -0.0272      0.0000      0.0363      0.0021      0.0050
        97         0.0334     -0.0000     -0.0305      0.0020      0.0049
        98        -0.0804      0.0000      0.0375      0.0079      0.0190
        99        -0.0000     -0.0681      0.0000      0.0046      0.0112
       100         0.2707     -0.0000      0.0234      0.0738      0.1771
       101        -0.0001     -0.0448      0.0000      0.0020      0.0048
       102        -0.0001      0.0379     -0.0002      0.0014      0.0034
       103         0.0316      0.0002      0.0555      0.0041      0.0098
       104         0.1939     -0.0000     -0.0312      0.0386      0.0922
       105         0.0443     -0.0000      0.0347      0.0032      0.0075
       106         0.0005     -0.1458      0.0000      0.0213      0.0505
       107        -0.1111     -0.0006     -0.0023      0.0123      0.0293
       108         0.0001      0.0674     -0.0000      0.0045      0.0108
       109        -0.1180     -0.0000      0.0428      0.0158      0.0373
       110        -0.0000     -0.0516      0.0000      0.0027      0.0063
       111        -0.0000      0.0558      0.0000      0.0031      0.0073
       112        -0.0573      0.0000     -0.0087      0.0034      0.0079
       113        -0.0817      0.0000     -0.0214      0.0071      0.0168
       114        -0.0000      0.0820      0.0000      0.0067      0.0158
       115        -0.0232     -0.0001      0.0258      0.0012      0.0028
       116        -0.0000      0.1600      0.0000      0.0256      0.0600
       117         0.0113     -0.0002      0.0141      0.0003      0.0008
       118        -0.0185     -0.0001     -0.0083      0.0004      0.0010
       119        -0.0001     -0.0001     -0.0208      0.0004      0.0010
       120         0.0000     -0.0343      0.0001      0.0012      0.0027
       121         0.0241      0.0000     -0.0098      0.0007      0.0016
       122        -0.0000     -0.0002     -0.0000      0.0000      0.0000
       123        -0.0000     -0.0686     -0.0000      0.0047      0.0109
       124         0.0000     -0.0491     -0.0000      0.0024      0.0056
       125        -0.0000     -0.0463      0.0000      0.0021      0.0049
       126        -0.2332     -0.0000      0.0182      0.0547      0.1255
       127         0.0001     -0.0547     -0.0000      0.0030      0.0068
       128         0.0001     -0.0961     -0.0000      0.0092      0.0211
       129        -0.0000     -0.0078      0.0000      0.0001      0.0001
       130         0.0302      0.0000      0.0483      0.0032      0.0074
       131         0.0360      0.0000     -0.0201      0.0017      0.0039
       132         0.0140      0.0000      0.0217      0.0007      0.0015
       133        -0.0000      0.0154     -0.0000      0.0002      0.0005
       134         0.0111      0.0000     -0.0433      0.0020      0.0045
       135        -0.0000     -0.0368      0.0000      0.0014      0.0031
       136         0.0269     -0.0000     -0.0264      0.0014      0.0032
       137        -0.0000      0.0386     -0.0000      0.0015      0.0033
       138        -0.0384      0.0001      0.0618      0.0053      0.0119
       139         0.0001      0.0438     -0.0001      0.0019      0.0043
       140        -0.0000      0.0576     -0.0000      0.0033      0.0075
       141        -0.0379     -0.0001     -0.0403      0.0031      0.0069
       142         0.0001     -0.0142     -0.0002      0.0002      0.0004
       143         0.0101      0.0002     -0.0264      0.0008      0.0018
       144        -0.0216     -0.0000      0.0691      0.0052      0.0117
       145        -0.0000     -0.0348     -0.0000      0.0012      0.0027
       146        -0.0000     -0.0226      0.0000      0.0005      0.0011
       147         0.0000     -0.1130     -0.0001      0.0128      0.0285
       148        -0.0423      0.0001     -0.0467      0.0040      0.0088
       149         0.0749      0.0001     -0.0099      0.0057      0.0127
       150         0.0063     -0.0000     -0.0294      0.0009      0.0020
 Ground to excited state transition magnetic dipole moments (Au):
       state          X           Y           Z
         1        -0.0175     -0.0001     -0.7158
         2         0.2047      0.0000      0.1635
         3         0.0000     -0.0391      0.0000
         4        -0.0158     -0.0000     -0.0844
         5        -0.0000     -0.1140      0.0000
         6         0.0000     -0.0308      0.0002
         7         0.0494     -0.0000     -1.3380
         8        -0.0000     -0.0930      0.0001
         9         0.0030     -0.0000     -1.5649
        10        -0.0000      0.3090     -0.0001
        11         0.5059      0.0001     -0.1387
        12        -0.0001      0.3343      0.0001
        13        -0.3217      0.0000     -0.0183
        14        -0.0590     -0.0000     -0.3889
        15         0.0000     -0.0222      0.0000
        16        -0.0000     -0.3502      0.0001
        17        -0.1635      0.0000      0.7325
        18         0.0001     -0.0335     -0.0007
        19         0.0110     -0.0000     -1.1556
        20        -0.0000     -0.1430      0.0012
        21         0.0224     -0.0002     -0.7492
        22        -0.0000     -0.0594     -0.0001
        23        -0.1373     -0.0000      0.1073
        24        -0.0000     -0.0439      0.0001
        25         0.0399     -0.0000     -1.3767
        26        -0.0000      0.1036     -0.0002
        27         0.0058     -0.0000     -0.1558
        28        -0.0911      0.0010     -0.0631
        29        -0.0002     -0.4618     -0.0002
        30        -0.0226      0.0223      2.1147
        31         0.0010      0.4746     -0.0995
        32         0.0000     -0.1154      0.0001
        33        -0.0001      0.2920      0.0011
        34        -0.2159     -0.0001      1.8095
        35        -0.0002     -0.0585      0.0002
        36         0.3134     -0.0000      1.7754
        37         0.0000     -0.1594     -0.0002
        38         0.0819      0.0001     -0.3453
        39        -0.2079     -0.0000      0.8275
        40         0.1341     -0.0000     -0.2231
        41         0.0543      0.0000      0.8715
        42         0.2674      0.0001     -1.0829
        43         0.5086     -0.0001      0.1080
        44        -0.0001     -0.4151     -0.0000
        45        -0.0000     -0.0042     -0.0001
        46         0.0000     -0.0849     -0.0000
        47        -0.1497     -0.0057     -0.1514
        48        -0.0026      0.3337     -0.0025
        49        -0.0000     -0.0585     -0.0002
        50         0.2970      0.0009      0.0982
        51        -0.0003      0.7926     -0.0000
        52        -0.0730      0.0001     -0.0591
        53        -0.0000      0.2084     -0.0000
        54         0.0002      0.1935     -0.0003
        55         0.3177      0.0000     -0.3891
        56        -0.0001     -0.0821      0.0005
        57        -0.1160      0.0003      0.2586
        58         0.1377     -0.0000     -0.1179
        59        -0.1284      0.0001      0.0975
        60         0.0362      0.0001      0.1265
        61        -0.0000      0.2693     -0.0001
        62         0.0001      0.0544     -0.0002
        63        -0.1131      0.0000     -0.6049
        64        -0.0000     -0.0831      0.0001
        65        -0.0001      0.1621      0.0001
        66        -0.0628      0.0000      1.1546
        67         0.3126      0.0001      0.1351
        68        -0.0000      0.2054     -0.0000
        69        -0.0000      0.2555     -0.0001
        70        -0.0000      0.3295      0.0000
        71        -0.1995      0.0001      0.0874
        72         0.0353      0.0004     -0.1729
        73        -0.0000      0.0733      0.0005
        74        -0.0000      0.0349      0.0004
        75         0.1665      0.0004     -0.1954
        76        -0.0001     -0.1833     -0.0001
        77        -0.5621      0.0001      0.0052
        78         0.0000     -0.1260      0.0004
        79         0.0350     -0.0002      0.2977
        80         0.1277     -0.0000     -1.4125
        81        -0.0000      1.3837      0.0001
        82         0.1836      0.0001     -0.5048
        83         0.0000     -0.3495      0.0000
        84         0.1874      0.0002     -0.1610
        85        -0.0000      0.6140     -0.0001
        86         0.0002     -0.2603      0.0002
        87         0.3020      0.0001      0.6444
        88         0.0001     -0.1419     -0.0003
        89         0.1749      0.0002     -0.4810
        90         0.2623     -0.0001     -0.3295
        91         0.0000      0.2554     -0.0001
        92        -0.0000     -0.1730     -0.0013
        93        -0.1679     -0.0001      2.8716
        94         0.0000     -0.2199     -0.0014
        95        -0.0000     -0.1206     -0.0003
        96        -0.1270      0.0000     -1.2076
        97        -0.1289     -0.0000      0.1342
        98        -0.0142      0.0000     -0.6277
        99        -0.0001      0.0196     -0.0002
       100        -0.2760     -0.0001      1.5975
       101         0.0002     -0.3398     -0.0004
       102         0.0001      0.0883     -0.0010
       103         0.0186      0.0006      0.4457
       104         0.1373      0.0000      0.8852
       105         0.3719      0.0000      0.5241
       106         0.0004      0.2213     -0.0012
       107        -0.1005      0.0012      0.2258
       108         0.0001      0.2608     -0.0003
       109         0.1829      0.0001     -0.4430
       110         0.0000     -0.2010     -0.0002
       111        -0.0001      0.1883      0.0002
       112         0.1215     -0.0000     -1.3562
       113         0.2399      0.0000      1.1847
       114        -0.0004     -0.2302      0.0022
       115        -0.2554      0.0003      1.5126
       116         0.0001     -0.1930     -0.0006
       117        -0.1452      0.0002     -0.1888
       118         0.2106     -0.0000     -0.3079
       119        -0.1202     -0.0019      0.6729
       120         0.0003     -0.4387     -0.0027
       121        -0.4226      0.0001      0.1192
       122        -0.0002      0.2220      0.0002
       123         0.0001      0.0758      0.0002
       124         0.0000      0.0013     -0.0001
       125        -0.0000      0.0086     -0.0001
       126         0.0882     -0.0000     -1.4736
       127         0.0001     -0.3462      0.0003
       128         0.0001      0.0954      0.0001
       129         0.0000     -0.2453     -0.0002
       130        -0.1512      0.0001      0.4067
       131         0.3323     -0.0002     -0.2192
       132        -0.2889     -0.0005      0.2239
       133         0.0001     -0.9418      0.0001
       134         0.2754      0.0001      0.3027
       135        -0.0000     -0.0844      0.0000
       136         0.3185     -0.0001     -0.3717
       137         0.0002      0.0425     -0.0000
       138        -0.4991     -0.0002     -0.0230
       139         0.0008     -0.0584      0.0002
       140        -0.0000     -0.0905      0.0002
       141        -0.0324      0.0003      0.3224
       142        -0.0008      0.5295      0.0011
       143        -0.0730     -0.0050      0.1223
       144        -0.4942     -0.0005      0.0091
       145         0.0004      0.0327     -0.0000
       146        -0.0002      0.7559     -0.0001
       147         0.0012      0.0041      0.0004
       148         0.9671     -0.0001      0.0615
       149         0.2598     -0.0000      0.4455
       150         0.0765     -0.0001      0.2662
 Ground to excited state transition velocity quadrupole moments (Au):
       state          XX          YY          ZZ          XY          XZ          YZ
         1        -0.0001      0.0000     -0.0000     -0.4979      0.0000     -0.0265
         2        -0.0001      0.0000      0.0000      0.0086      0.0000     -0.0381
         3        -0.0671     -0.0826     -0.0052      0.0000     -0.0006     -0.0000
         4        -0.0000      0.0000      0.0000      0.2773      0.0000     -0.0186
         5         1.8635     -0.2338     -0.0187      0.0000      0.1007     -0.0000
         6        -1.7081     -0.0316     -0.0068      0.0001     -0.0465      0.0000
         7        -0.0002      0.0000     -0.0000     -0.4553     -0.0000     -0.0053
         8        -1.7105     -0.1107     -0.0088      0.0000     -0.0301      0.0000
         9        -0.0001     -0.0000      0.0000     -0.9123     -0.0000     -0.0483
        10         0.0674      0.0045     -0.0098     -0.0001      0.1275     -0.0000
        11         0.0002      0.0000     -0.0000     -0.0734      0.0000      0.3146
        12         0.2135      0.0150      0.0106      0.0001     -0.1005     -0.0001
        13         0.0000      0.0000     -0.0000      0.1268     -0.0000     -0.0068
        14         0.0000     -0.0000     -0.0000     -0.4602      0.0000     -0.0290
        15         0.0029     -0.0105     -0.0212      0.0000      0.0116      0.0000
        16         0.0617     -0.1816     -0.0341      0.0000      0.2230     -0.0000
        17        -0.0000      0.0001     -0.0000      1.0126     -0.0000     -0.0668
        18         0.3331      0.1454     -0.0107     -0.0010      0.0531      0.0000
        19         0.0004      0.0000     -0.0000     -1.3668      0.0000     -0.0302
        20        -4.0817     -0.2901      0.0564      0.0020      0.0041      0.0000
        21        -0.0077     -0.0005      0.0001     -1.1687     -0.0000      0.0037
        22        -0.1853     -0.2719      0.0146     -0.0000      0.0603     -0.0000
        23        -0.0004     -0.0001      0.0000     -0.1394      0.0000     -0.0679
        24         0.1658     -0.0576      0.0410      0.0002      0.0424      0.0000
        25        -0.0002     -0.0001      0.0000     -1.0802      0.0000      0.0190
        26         1.6752      0.7349     -0.0663     -0.0002     -0.0707     -0.0000
        27         0.0001      0.0001     -0.0000     -0.1962      0.0000      0.0691
        28         0.0001     -0.0008     -0.0002     -0.5031     -0.0010     -0.1078
        29        -0.1299      0.2941      0.0727     -0.0012      0.4597     -0.0003
        30        -0.0009     -0.0043     -0.0029      0.5272     -0.0213      0.0275
        31        -0.0216     -0.0910     -0.0614     -0.0248     -0.4524     -0.0013
        32        -0.2843      0.1502     -0.0091      0.0000      0.0825      0.0000
        33         1.6338     -0.1455     -0.0598      0.0005     -0.2046      0.0000
        34        -0.0010      0.0001      0.0001      0.8619      0.0000     -0.0607
        35         0.5190     -0.2279     -0.1095      0.0000      0.0717     -0.0001
        36        -0.0003     -0.0001     -0.0000      1.1893      0.0000      0.2072
        37         7.5376     -0.8508      0.0207     -0.0000      0.3481     -0.0000
        38        -0.0049      0.0005     -0.0000     -0.1144     -0.0002      0.0023
        39         0.0003      0.0000      0.0000      0.1947      0.0000     -0.2319
        40         0.0002     -0.0000     -0.0000      0.1238      0.0000     -0.0062
        41         0.0002     -0.0001     -0.0000      1.0192      0.0000      0.1571
        42         0.0002      0.0000     -0.0000     -2.5158      0.0000      0.0928
        43        -0.0001     -0.0001      0.0000      0.4283      0.0000      0.0828
        44        -0.1484     -0.0309      0.0086     -0.0003      0.1216      0.0000
        45        -1.3023     -0.4803     -0.0088     -0.0001     -0.0134      0.0000
        46         0.1248      0.3169     -0.1117      0.0000      0.1382     -0.0000
        47        -0.0052      0.0016      0.0024      0.1603      0.0065     -0.0653
        48         0.3259     -0.0911     -0.1398      0.0028     -0.3784     -0.0011
        49        -0.6795     -0.2663     -0.0808     -0.0001      0.0664      0.0000
        50        -0.0001      0.0000     -0.0001      0.2256     -0.0007      0.3854
        51        -0.2244     -0.0061     -0.1020     -0.0001     -0.5731     -0.0005
        52        -0.0001     -0.0000     -0.0000     -0.0414     -0.0001      0.0274
        53        -0.7301      0.0808      0.0028      0.0000      0.0112     -0.0000
        54         0.1025     -0.1426     -0.0414     -0.0005     -0.4437      0.0001
        55        -0.0000     -0.0001      0.0000     -0.8216      0.0003      0.3010
[...]
    25  H    0.008551  -0.010151   0.005364  -0.000008   0.000000   0.000000
    26  H    0.295542   0.041056  -0.056625  -0.000000   0.000000  -0.000000
    27  H    0.069393   0.268792  -0.036743   0.000000  -0.000000   0.000000
    28  H   -0.011617   0.006321   0.322075   0.000000   0.000000   0.000000
    29  H    0.000000   0.000000   0.000001   0.425541   0.008563  -0.010153
    30  H    0.000000  -0.000000   0.000000   0.032347   0.295530   0.041060
    31  H   -0.000000   0.000000  -0.000000  -0.082272   0.069395   0.268789
    32  H    0.000000   0.000000   0.000000  -0.010234  -0.011616   0.006303
    33  H    0.000252   0.005484   0.009325   0.000203   0.000012  -0.000051
    34  H   -0.000249   0.011106  -0.005194  -0.000018  -0.000001  -0.000000
    35  H   -0.000332   0.008747   0.009313  -0.000007   0.000000   0.000000
    36  H    0.000047  -0.001561  -0.007399  -0.000068  -0.000007   0.000035
    37  H    0.000602  -0.001444  -0.006187   0.000001  -0.000000   0.000000
    38  H    0.000012  -0.000051  -0.000308  -0.009567   0.000251   0.005489
    39  H   -0.000001  -0.000000  -0.000021   0.005141  -0.000247   0.011095
    40  H    0.000000   0.000000   0.000005   0.001789  -0.000332   0.008747
    41  H   -0.000007   0.000035   0.000264   0.003501   0.000047  -0.001559
    42  H   -0.000000   0.000000  -0.000040  -0.003074   0.000602  -0.001445
              19         20         21         22         23         24
     1  C    0.127679  -0.660630  -0.152271  -0.212107   0.034483  -0.010448
     2  C   -0.161102   0.113818   0.049890   0.113915   0.049865   0.392377
     3  C   -0.754298  -0.212051   0.034486  -0.660521  -0.152331  -0.010423
     4  N   -0.149708  -0.009464   0.003680  -0.167370   0.084297  -0.032366
     5  S   -0.066843   0.065574  -0.103492   0.035401   0.016041  -0.008769
     6  C    0.007417  -0.090676  -0.052415  -0.028744   0.016981  -0.017692
     7  C    0.009325   0.537919  -0.098475  -0.032312  -0.000550   0.019929
     8  N    0.004069  -0.167314   0.084278  -0.009458   0.003675  -0.032367
     9  S    0.247383   0.035371   0.016051   0.065500  -0.103453  -0.008762
    10  C    0.698351  -0.028753   0.016981  -0.090745  -0.052357  -0.017696
    11  C   -4.173626  -0.032302  -0.000545   0.538062  -0.098567   0.019919
    12  C    0.001186   0.209213   0.074297  -0.005058   0.002640  -0.001524
    13  C   -0.000065  -0.030534  -0.008931  -0.000400   0.000393  -0.000626
    14  C    0.000070  -0.033218  -0.024287   0.001217  -0.000989   0.000519
    15  C   -0.000913  -0.207623   0.064333   0.006859  -0.000735  -0.006609
    16  C    1.062741  -0.005060   0.002641   0.209217   0.074311  -0.001526
    17  C   -0.071079  -0.000401   0.000394  -0.030545  -0.008932  -0.000626
    18  C   -0.672395   0.001217  -0.000989  -0.033223  -0.024302   0.000518
    19  C    9.953697   0.006862  -0.000734  -0.207647   0.064357  -0.006608
    20  C    0.006862   6.620173  -0.374025   0.007918  -0.016966   0.018483
    21  C   -0.000734  -0.374025   6.172817  -0.016970   0.010385  -0.006393
    22  C   -0.207647   0.007918  -0.016970   6.620098  -0.374001   0.018487
    23  C    0.064357  -0.016966   0.010385  -0.374001   6.172796  -0.006395
    24  H   -0.006608   0.018483  -0.006393   0.018487  -0.006395   0.389929
    25  H    0.000001   0.000632   0.000046   0.000001   0.000001   0.000000
    26  H    0.000000  -0.000014   0.000034   0.000000  -0.000000   0.000000
    27  H   -0.000000   0.000330  -0.000045  -0.000000   0.000000   0.000000
    28  H    0.000000   0.005885   0.003582  -0.000014   0.000003  -0.000002
    29  H    0.005370   0.000001   0.000001   0.000632   0.000046   0.000000
    30  H   -0.056630   0.000000  -0.000000  -0.000015   0.000034   0.000000
    31  H   -0.036744  -0.000000   0.000000   0.000330  -0.000045   0.000000
    32  H    0.322089  -0.000014   0.000003   0.005896   0.003579  -0.000002
    33  H   -0.000309   0.424889  -0.037397   0.002826  -0.003768  -0.001495
    34  H   -0.000021   0.436377  -0.047574   0.000130   0.000203   0.000769
    35  H    0.000005   0.019456   0.368034   0.000374  -0.000390   0.000051
    36  H    0.000264   0.042457   0.344729  -0.002346   0.002197   0.000389
    37  H   -0.000040  -0.103005   0.396398   0.000026   0.000074  -0.000074
    38  H    0.009330   0.002829  -0.003768   0.424934  -0.037411  -0.001497
    39  H   -0.005202   0.000131   0.000203   0.436383  -0.047577   0.000769
    40  H    0.009314   0.000374  -0.000390   0.019465   0.368025   0.000051
    41  H   -0.007395  -0.002345   0.002196   0.042441   0.344741   0.000389
    42  H   -0.006185   0.000026   0.000074  -0.102996   0.396391  -0.000075
              25         26         27         28         29         30
     1  C   -0.001057   0.000364   0.006661   0.004116  -0.001289  -0.000036
     2  C    0.002035   0.000143  -0.000569  -0.001140   0.002035   0.000143
     3  C   -0.001288  -0.000036   0.000056   0.000161  -0.001060   0.000364
     4  N    0.000004  -0.000000   0.000000  -0.000003   0.000155   0.000827
     5  S    0.043303   0.000587  -0.003739  -0.002167   0.002553  -0.000039
     6  C   -0.151498  -0.023232   0.050988  -0.004115   0.000023  -0.000000
     7  C    0.002958   0.038540   0.054808   0.027095  -0.000016  -0.000000
     8  N    0.000155   0.000827  -0.001720  -0.018371   0.000004  -0.000000
     9  S    0.002553  -0.000039  -0.000033  -0.000022   0.043297   0.000588
    10  C    0.000023  -0.000000   0.000000   0.000005  -0.151507  -0.023233
    11  C   -0.000016  -0.000000   0.000000  -0.000000   0.002952   0.038547
    12  C    0.425535   0.032342  -0.082267  -0.010237  -0.000008  -0.000000
    13  C    0.008551   0.295542   0.069393  -0.011617   0.000000   0.000000
    14  C   -0.010151   0.041056   0.268792   0.006321   0.000000  -0.000000
    15  C    0.005364  -0.056625  -0.036743   0.322075   0.000001   0.000000
    16  C   -0.000008  -0.000000   0.000000   0.000000   0.425541   0.032347
    17  C    0.000000   0.000000  -0.000000   0.000000   0.008563   0.295530
    18  C    0.000000  -0.000000   0.000000   0.000000  -0.010153   0.041060
    19  C    0.000001   0.000000  -0.000000   0.000000   0.005370  -0.056630
    20  C    0.000632  -0.000014   0.000330   0.005885   0.000001   0.000000
    21  C    0.000046   0.000034  -0.000045   0.003582   0.000001  -0.000000
    22  C    0.000001   0.000000  -0.000000  -0.000014   0.000632  -0.000015
    23  C    0.000001  -0.000000   0.000000   0.000003   0.000046   0.000034
    24  H    0.000000   0.000000   0.000000  -0.000002   0.000000   0.000000
    25  H    0.399428  -0.004314  -0.000224   0.000045   0.000000   0.000000
    26  H   -0.004314   0.410308  -0.005010  -0.000224   0.000000  -0.000000
    27  H   -0.000224  -0.005010   0.411391  -0.003992   0.000000   0.000000
    28  H    0.000045  -0.000224  -0.003992   0.402077  -0.000000  -0.000000
    29  H    0.000000   0.000000   0.000000  -0.000000   0.399427  -0.004314
    30  H    0.000000  -0.000000   0.000000  -0.000000  -0.004314   0.410308
    31  H    0.000000   0.000000  -0.000000   0.000000  -0.000224  -0.005010
    32  H   -0.000000  -0.000000   0.000000  -0.000000   0.000045  -0.000224
    33  H   -0.000000  -0.000000  -0.000000   0.000185   0.000000  -0.000000
    34  H   -0.000001  -0.000000   0.000040   0.001171   0.000000   0.000000
    35  H   -0.000000   0.000000  -0.000001  -0.000692  -0.000000   0.000000
    36  H   -0.000000  -0.000000   0.000000  -0.000008   0.000000   0.000000
    37  H   -0.000000   0.000000   0.000000   0.000084  -0.000000   0.000000
    38  H    0.000000  -0.000000  -0.000000   0.000000  -0.000000  -0.000000
    39  H    0.000000   0.000000  -0.000000   0.000000  -0.000001  -0.000000
    40  H   -0.000000   0.000000   0.000000   0.000000  -0.000000   0.000000
    41  H    0.000000   0.000000  -0.000000   0.000000  -0.000000  -0.000000
    42  H   -0.000000   0.000000  -0.000000   0.000000  -0.000000   0.000000
              31         32         33         34         35         36
     1  C    0.000056   0.000161  -0.000134  -0.015713  -0.026270  -0.025648
     2  C   -0.000569  -0.001142   0.029352   0.000440   0.009586   0.009168
     3  C    0.006661   0.004118   0.002492  -0.006692  -0.002799  -0.017203
     4  N   -0.001720  -0.018373   0.000128  -0.000077  -0.000038  -0.000068
     5  S   -0.000033  -0.000022  -0.002383   0.007216   0.001237   0.003661
     6  C    0.000000   0.000005  -0.011811  -0.011192   0.002882   0.013294
     7  C    0.000000  -0.000000  -0.003003   0.044919  -0.007837   0.022113
     8  N    0.000000  -0.000003  -0.070057  -0.081412  -0.024980  -0.029012
     9  S   -0.003738  -0.002167   0.003145  -0.001794   0.000539  -0.000462
    10  C    0.050995  -0.004116   0.001789  -0.000246  -0.000065  -0.000979
    11  C    0.054807   0.027089   0.000423  -0.000029  -0.000060  -0.001325
    12  C    0.000000   0.000000  -0.009564   0.005138   0.001794   0.003501
    13  C   -0.000000   0.000000   0.000252  -0.000249  -0.000332   0.000047
    14  C    0.000000   0.000000   0.005484   0.011106   0.008747  -0.001561
    15  C   -0.000000   0.000000   0.009325  -0.005194   0.009313  -0.007399
    16  C   -0.082272  -0.010234   0.000203  -0.000018  -0.000007  -0.000068
    17  C    0.069395  -0.011616   0.000012  -0.000001   0.000000  -0.000007
    18  C    0.268789   0.006303  -0.000051  -0.000000   0.000000   0.000035
    19  C   -0.036744   0.322089  -0.000309  -0.000021   0.000005   0.000264
    20  C   -0.000000  -0.000014   0.424889   0.436377   0.019456   0.042457
    21  C    0.000000   0.000003  -0.037397  -0.047574   0.368034   0.344729
    22  C    0.000330   0.005896   0.002826   0.000130   0.000374  -0.002346
    23  C   -0.000045   0.003579  -0.003768   0.000203  -0.000390   0.002197
    24  H    0.000000  -0.000002  -0.001495   0.000769   0.000051   0.000389
    25  H    0.000000  -0.000000  -0.000000  -0.000001  -0.000000  -0.000000
    26  H    0.000000  -0.000000  -0.000000  -0.000000   0.000000  -0.000000
    27  H   -0.000000   0.000000  -0.000000   0.000040  -0.000001   0.000000
    28  H    0.000000  -0.000000   0.000185   0.001171  -0.000692  -0.000008
    29  H   -0.000224   0.000045   0.000000   0.000000  -0.000000   0.000000
    30  H   -0.005010  -0.000224  -0.000000   0.000000   0.000000   0.000000
    31  H    0.411390  -0.003992  -0.000000  -0.000000   0.000000  -0.000000
    32  H   -0.003992   0.402073   0.000000   0.000000   0.000000   0.000000
    33  H   -0.000000   0.000000   0.421197  -0.029210   0.004030  -0.007702
    34  H   -0.000000   0.000000  -0.029210   0.418987  -0.006923   0.004397
    35  H    0.000000   0.000000   0.004030  -0.006923   0.425789  -0.032530
    36  H   -0.000000   0.000000  -0.007702   0.004397  -0.032530   0.426153
    37  H   -0.000000   0.000000  -0.000118  -0.000332  -0.022625  -0.021009
    38  H   -0.000000   0.000185  -0.000690  -0.000008   0.000007   0.000503
    39  H    0.000040   0.001169  -0.000008  -0.000000  -0.000000   0.000018
    40  H   -0.000001  -0.000693   0.000007  -0.000000   0.000000   0.000001
    41  H    0.000000  -0.000008   0.000503   0.000018   0.000001  -0.000010
    42  H    0.000000   0.000084  -0.000031  -0.000001   0.000000  -0.000008
              37         38         39         40         41         42
     1  C    0.040850   0.002517  -0.006696  -0.002798  -0.017199   0.000289
     2  C   -0.010145   0.029335   0.000439   0.009586   0.009164  -0.010144
     3  C    0.000287  -0.000129  -0.015716  -0.026257  -0.025636   0.040841
     4  N   -0.000016  -0.070084  -0.081431  -0.024981  -0.029010   0.016429
     5  S    0.002638   0.003146  -0.001794   0.000539  -0.000463  -0.000713
     6  C   -0.002208   0.001791  -0.000246  -0.000065  -0.000979   0.000017
     7  C    0.014576   0.000424  -0.000029  -0.000060  -0.001324   0.000258
     8  N    0.016426   0.000127  -0.000077  -0.000038  -0.000068  -0.000016
     9  S   -0.000713  -0.002385   0.007220   0.001237   0.003665   0.002637
    10  C    0.000017  -0.011822  -0.011186   0.002889   0.013280  -0.002205
    11  C    0.000258  -0.003017   0.044943  -0.007850   0.022107   0.014577
    12  C   -0.003074   0.000203  -0.000018  -0.000007  -0.000067   0.000001
    13  C    0.000602   0.000012  -0.000001   0.000000  -0.000007  -0.000000
    14  C   -0.001444  -0.000051  -0.000000   0.000000   0.000035   0.000000
    15  C   -0.006187  -0.000308  -0.000021   0.000005   0.000264  -0.000040
    16  C    0.000001  -0.009567   0.005141   0.001789   0.003501  -0.003074
    17  C   -0.000000   0.000251  -0.000247  -0.000332   0.000047   0.000602
    18  C    0.000000   0.005489   0.011095   0.008747  -0.001559  -0.001445
    19  C   -0.000040   0.009330  -0.005202   0.009314  -0.007395  -0.006185
    20  C   -0.103005   0.002829   0.000131   0.000374  -0.002345   0.000026
    21  C    0.396398  -0.003768   0.000203  -0.000390   0.002196   0.000074
    22  C    0.000026   0.424934   0.436383   0.019465   0.042441  -0.102996
    23  C    0.000074  -0.037411  -0.047577   0.368025   0.344741   0.396391
    24  H   -0.000074  -0.001497   0.000769   0.000051   0.000389  -0.000075
    25  H   -0.000000   0.000000   0.000000  -0.000000   0.000000  -0.000000
    26  H    0.000000  -0.000000   0.000000   0.000000   0.000000   0.000000
    27  H    0.000000  -0.000000  -0.000000   0.000000  -0.000000  -0.000000
    28  H    0.000084   0.000000   0.000000   0.000000   0.000000   0.000000
    29  H   -0.000000  -0.000000  -0.000001  -0.000000  -0.000000  -0.000000
    30  H    0.000000  -0.000000  -0.000000   0.000000  -0.000000   0.000000
    31  H   -0.000000  -0.000000   0.000040  -0.000001   0.000000   0.000000
    32  H    0.000000   0.000185   0.001169  -0.000693  -0.000008   0.000084
    33  H   -0.000118  -0.000690  -0.000008   0.000007   0.000503  -0.000031
    34  H   -0.000332  -0.000008  -0.000000  -0.000000   0.000018  -0.000001
    35  H   -0.022625   0.000007  -0.000000   0.000000   0.000001   0.000000
    36  H   -0.021009   0.000503   0.000018   0.000001  -0.000010  -0.000008
    37  H    0.431624  -0.000031  -0.000001   0.000000  -0.000008  -0.000003
    38  H   -0.000031   0.421194  -0.029207   0.004030  -0.007701  -0.000119
    39  H   -0.000001  -0.029207   0.418993  -0.006923   0.004397  -0.000332
    40  H    0.000000   0.004030  -0.006923   0.425785  -0.032528  -0.022625
    41  H   -0.000008  -0.007701   0.004397  -0.032528   0.426148  -0.021008
    42  H   -0.000003  -0.000119  -0.000332  -0.022625  -0.021008   0.431626
 Mulliken charges:
               1
     1  C   -0.149040
     2  C   -0.595676
     3  C   -0.148978
     4  N    0.698579
     5  S   -0.529584
     6  C    1.102714
     7  C   -0.169602
     8  N    0.698500
     9  S   -0.529633
    10  C    1.102797
    11  C   -0.169643
    12  C   -0.839916
    13  C    0.109909
    14  C   -0.597383
    15  C   -0.152024
    16  C   -0.839998
    17  C    0.109879
    18  C   -0.597419
    19  C   -0.151965
    20  C   -0.575539
    21  C   -0.716831
    22  C   -0.575641
    23  C   -0.716749
    24  H    0.309397
    25  H    0.277923
    26  H    0.269752
    27  H    0.271884
    28  H    0.279801
    29  H    0.277925
    30  H    0.269752
    31  H    0.271885
    32  H    0.279805
    33  H    0.271490
    34  H    0.275776
    35  H    0.273706
    36  H    0.274420
    37  H    0.267170
    38  H    0.271490
    39  H    0.275774
    40  H    0.273707
    41  H    0.274419
    42  H    0.267165
 Sum of Mulliken charges =   1.00000
 Mulliken charges with hydrogens summed into heavy atoms:
               1
     1  C   -0.149040
     2  C   -0.286279
     3  C   -0.148978
     4  N    0.698579
     5  S   -0.529584
     6  C    1.102714
     7  C   -0.169602
     8  N    0.698500
     9  S   -0.529633
    10  C    1.102797
    11  C   -0.169643
    12  C   -0.561993
    13  C    0.379661
    14  C   -0.325499
    15  C    0.127777
    16  C   -0.562073
    17  C    0.379630
    18  C   -0.325534
    19  C    0.127841
    20  C   -0.028273
    21  C    0.098466
    22  C   -0.028377
    23  C    0.098542
 Electronic spatial extent (au):  <R**2>=          10370.6607
 Charge=              1.0000 electrons
 Dipole moment (field-independent basis, Debye):
    X=              0.0001    Y=              5.3440    Z=              0.0001  Tot=              5.3440
 Quadrupole moment (field-independent basis, Debye-Ang):
   XX=            -70.2839   YY=           -110.4919   ZZ=           -155.8096
   XY=             -0.0004   XZ=              2.2238   YZ=             -0.0005
 Traceless Quadrupole moment (field-independent basis, Debye-Ang):
   XX=             41.9113   YY=              1.7032   ZZ=            -43.6145
   XY=             -0.0004   XZ=              2.2238   YZ=             -0.0005
 Octapole moment (field-independent basis, Debye-Ang**2):
  XXX=              0.0019  YYY=             21.5154  ZZZ=              0.0003  XYY=             -0.0005
  XXY=              1.3295  XXZ=              0.0025  XZZ=             -0.0001  YZZ=             14.6295
  YYZ=              0.0017  XYZ=              7.3196
 Hexadecapole moment (field-independent basis, Debye-Ang**3):
 XXXX=          -8678.3590 YYYY=          -2353.4211 ZZZZ=           -346.5352 XXXY=             -0.0067
 XXXZ=             79.0551 YYYX=             -0.0086 YYYZ=             -0.0039 ZZZX=            -10.1378
 ZZZY=              0.0012 XXYY=          -1851.2139 XXZZ=          -2155.7256 YYZZ=           -527.4313
 XXYZ=             -0.0143 YYXZ=              2.8763 ZZXY=              0.0003
 N-N= 2.127852619795D+03 E-N=-8.086604278498D+03  KE= 1.636443932205D+03
 Unable to Open any file for archive entry.
 1\1\GINC-CN04\SP\RB3LYP TD-FC\6-311+G(d)\C19H19N2S2(1+)\2100011873\04-
 Nov-2023\0\\# td=(nstates=150) b3lyp/6-311+g* scrf(smd, solvent=ethano
 l)\\A-1\\1,1\C,0,-1.259214,0.216698,-0.039367\C,0,0.000003,0.828935,-0
 .000122\C,0,1.259209,0.216684,0.039249\N,0,2.433464,0.904848,0.145998\
 S,0,-1.557561,-1.512152,0.053882\C,0,-3.297665,-1.258824,-0.027283\C,0
 ,-3.589904,0.108866,-0.118299\N,0,-2.433474,0.904863,-0.146106\S,0,1.5
 57549,-1.512171,-0.053923\C,0,3.297657,-1.25885,0.027304\C,0,3.5899,0.
 108842,0.118251\C,0,-4.301571,-2.224422,-0.003624\C,0,-5.624645,-1.792
 125,-0.066975\C,0,-5.925643,-0.425687,-0.149009\C,0,-4.920394,0.538274
 ,-0.174272\C,0,4.301563,-2.22445,0.003718\C,0,5.624635,-1.792149,0.067
 066\C,0,5.925635,-0.425707,0.149021\C,0,4.920384,0.538258,0.174213\C,0
 ,-2.510348,2.373529,-0.257226\C,0,-2.566433,3.073786,1.101522\C,0,2.51
 0339,2.373497,0.257299\C,0,2.566508,3.073929,-1.101357\H,0,0.000014,1.
 90904,-0.000214\H,0,-4.060576,-3.280313,0.063971\H,0,-6.427238,-2.5221
 32,-0.049094\H,0,-6.962056,-0.106514,-0.191342\H,0,-5.176748,1.590213,
 -0.22813\H,0,4.060566,-3.280345,-0.063815\H,0,6.42723,-2.522156,0.0492
 31\H,0,6.962048,-0.106532,0.191339\H,0,5.176733,1.590201,0.228019\H,0,
 -1.657488,2.708489,-0.852128\H,0,-3.398115,2.597174,-0.852215\H,0,-3.4
 41185,2.752064,1.674572\H,0,-1.673838,2.863356,1.699082\H,0,-2.63423,4
 .156364,0.954302\H,0,1.657436,2.708379,0.852183\H,0,3.398074,2.597059,
 0.85237\H,0,3.441334,2.752344,-1.674368\H,0,1.673988,2.86351,-1.699033
 \H,0,2.634214,4.156493,-0.95399\\Version=ES64L-G16RevC.02\State=1-A\HF
 =-1641.4741467\RMSD=2.031e-09\PG=C01 [X(C19H19N2S2)]\\@
 The archive entry for this job was punched.


 THE WORLD IS MADE UP OF THE WILLS, THE WON'TS, AND THE CANT'S:
 THE WILLS DO EVERYTHING,
 THE WON'TS DO NOTHING,
 THE CAN'TS CAN'T DO ANYTHING.

                               -- FROM WALT DISNEY'S "BLACK HOLE"
 Job cpu time:       1 days  5 hours 54 minutes 16.2 seconds.
 Elapsed time:       0 days  0 hours 58 minutes 18.8 seconds.
 File lengths (MBytes):  RWF=  19488 Int=      0 D2E=      0 Chk=   1520 Scr=     32
 Normal termination of Gaussian 16 at Sat Nov  4 19:53:09 2023.
