 Entering Gaussian System, Link 0=g16
 Initial command:
 /nfs-share/home/2100011873/Gaussian16_AVX2/g16/l1.exe "/nfs-share/home/2100011873/GaussTmp/Gau-92399.inp" -scrdir="/nfs-share/home/2100011873/GaussTmp/"
 Entering Link 1 = /nfs-share/home/2100011873/Gaussian16_AVX2/g16/l1.exe PID=     92400.
  
 Copyright (c) 1988-2021, Gaussian, Inc.  All Rights Reserved.
  
 This is part of the Gaussian(R) 16 program.  It is based on
 the Gaussian(R) 09 system (copyright 2009, Gaussian, Inc.),
 the Gaussian(R) 03 system (copyright 2003, Gaussian, Inc.),
 the Gaussian(R) 98 system (copyright 1998, Gaussian, Inc.),
 the Gaussian(R) 94 system (copyright 1995, Gaussian, Inc.),
 the Gaussian 92(TM) system (copyright 1992, Gaussian, Inc.),
 the Gaussian 90(TM) system (copyright 1990, Gaussian, Inc.),
 the Gaussian 88(TM) system (copyright 1988, Gaussian, Inc.),
 the Gaussian 86(TM) system (copyright 1986, Carnegie Mellon
 University), and the Gaussian 82(TM) system (copyright 1983,
 Carnegie Mellon University). Gaussian is a federally registered
 trademark of Gaussian, Inc.
  
 This software contains proprietary and confidential information,
 including trade secrets, belonging to Gaussian, Inc.
  
 This software is provided under written license and may be
 used, copied, transmitted, or stored only in accord with that
 written license.
  
 The following legend is applicable only to US Government
 contracts under FAR:
  
                    RESTRICTED RIGHTS LEGEND
  
 Use, reproduction and disclosure by the US Government is
 subject to restrictions as set forth in subparagraphs (a)
 and (c) of the Commercial Computer Software - Restricted
 Rights clause in FAR 52.227-19.
  
 Gaussian, Inc.
 340 Quinnipiac St., Bldg. 40, Wallingford CT 06492
  
  
 ---------------------------------------------------------------
 Warning -- This program may not be used in any manner that
 competes with the business of Gaussian, Inc. or will provide
 assistance to any competitor of Gaussian, Inc.  The licensee
 of this program is prohibited from giving any competitor of
 Gaussian, Inc. access to this program.  By using this program,
 the user acknowledges that Gaussian, Inc. is engaged in the
 business of creating and licensing software in the field of
 computational chemistry and represents and warrants to the
 licensee that it is not a competitor of Gaussian, Inc. and that
 it will not use this program in any manner prohibited above.
 ---------------------------------------------------------------
  

 Cite this work as:
 Gaussian 16, Revision C.02,
 M. J. Frisch, G. W. Trucks, H. B. Schlegel, G. E. Scuseria, 
 M. A. Robb, J. R. Cheeseman, G. Scalmani, V. Barone, 
 G. A. Petersson, H. Nakatsuji, X. Li, M. Caricato, A. V. Marenich, 
 J. Bloino, B. G. Janesko, R. Gomperts, B. Mennucci, H. P. Hratchian, 
 J. V. Ortiz, A. F. Izmaylov, J. L. Sonnenberg, D. Williams-Young, 
 F. Ding, F. Lipparini, F. Egidi, J. Goings, B. Peng, A. Petrone, 
 T. Henderson, D. Ranasinghe, V. G. Zakrzewski, J. Gao, N. Rega, 
 G. Zheng, W. Liang, M. Hada, M. Ehara, K. Toyota, R. Fukuda, 
 J. Hasegawa, M. Ishida, T. Nakajima, Y. Honda, O. Kitao, H. Nakai, 
 T. Vreven, K. Throssell, J. A. Montgomery, Jr., J. E. Peralta, 
 F. Ogliaro, M. J. Bearpark, J. J. Heyd, E. N. Brothers, K. N. Kudin, 
 V. N. Staroverov, T. A. Keith, R. Kobayashi, J. Normand, 
 K. Raghavachari, A. P. Rendell, J. C. Burant, S. S. Iyengar, 
 J. Tomasi, M. Cossi, J. M. Millam, M. Klene, C. Adamo, R. Cammi, 
 J. W. Ochterski, R. L. Martin, K. Morokuma, O. Farkas, 
 J. B. Foresman, and D. J. Fox, Gaussian, Inc., Wallingford CT, 2019.
 
 ******************************************
 Gaussian 16:  ES64L-G16RevC.02  7-Dec-2021
                 4-Nov-2023 
 ******************************************
 %nprocshared=32
 Will use up to   32 processors via shared memory.
 %mem=128GB
 -------------------------------------------------------------
 # td=(nstates=50) PBE1PBE/def2TZVP scrf(smd, solvent=ethanol)
 -------------------------------------------------------------
 1/38=1,172=1/1;
 2/12=2,17=6,18=5,40=1/2;
 3/5=44,7=101,11=9,25=1,30=1,70=32201,72=4,74=-13/1,2,3,8;
 4//1;
 5/5=2,38=5,53=4/2;
 8/6=1,10=1,108=50/1;
 9/41=50,42=1,70=2/14;
 6/7=2,8=2,9=2,10=2/1;
 99/5=1,9=1/99;
 ---
 B-2
 ---
 Symbolic Z-matrix:
 Charge =  0 Multiplicity = 1
 C                     4.18604  -0.98524  -0.00011 
 C                     2.96568  -0.09996   0.00002 
 C                     1.72426  -0.63647  -0.00021 
 C                     0.45258   0.05967  -0.00018 
 C                    -0.74108  -0.57941  -0.00021 
 C                    -2.06437   0.04042  -0.00014 
 C                    -3.15288  -0.76323   0.00025 
 C                    -4.60417  -0.38585   0.00043 
 C                     3.26039   1.37827   0.00057 
 C                    -2.13318   1.55026  -0.00054 
 H                     4.81718  -0.79122  -0.87967 
 H                     4.8171   -0.79165   0.8796 
 H                     3.9221   -2.04745  -0.00037 
 H                     1.65238  -1.72528  -0.00049 
 H                     0.46913   1.14647  -0.00011 
 H                    -0.73542  -1.67054  -0.0003 
 H                    -2.96813  -1.83864   0.00044 
 H                    -4.77347   0.69375   0.00148 
 H                    -5.11489  -0.80271  -0.87923 
 H                    -5.11504  -0.80447   0.87914 
 H                     2.363     2.00076   0.00008 
 H                     3.85901   1.65372   0.88055 
 H                     3.86032   1.65418  -0.87836 
 H                    -1.62727   1.96404  -0.8821 
 H                    -3.15869   1.92368  -0.00045 
 H                    -1.62693   1.9646    0.88057 
 
                          Input orientation:                          
 ---------------------------------------------------------------------
 Center     Atomic      Atomic             Coordinates (Angstroms)
 Number     Number       Type             X           Y           Z
 ---------------------------------------------------------------------
      1          6           0        4.186043   -0.985243   -0.000113
      2          6           0        2.965678   -0.099955    0.000017
      3          6           0        1.724259   -0.636470   -0.000213
      4          6           0        0.452578    0.059668   -0.000179
      5          6           0       -0.741079   -0.579413   -0.000205
      6          6           0       -2.064372    0.040415   -0.000137
      7          6           0       -3.152878   -0.763225    0.000253
      8          6           0       -4.604173   -0.385851    0.000427
      9          6           0        3.260391    1.378273    0.000567
     10          6           0       -2.133175    1.550261   -0.000541
     11          1           0        4.817179   -0.791217   -0.879673
     12          1           0        4.817098   -0.791647    0.879598
     13          1           0        3.922096   -2.047445   -0.000374
     14          1           0        1.652379   -1.725280   -0.000493
     15          1           0        0.469127    1.146468   -0.000113
     16          1           0       -0.735417   -1.670538   -0.000304
     17          1           0       -2.968126   -1.838635    0.000440
     18          1           0       -4.773466    0.693748    0.001475
     19          1           0       -5.114894   -0.802710   -0.879231
     20          1           0       -5.115042   -0.804470    0.879137
     21          1           0        2.363003    2.000757    0.000075
     22          1           0        3.859006    1.653716    0.880554
     23          1           0        3.860320    1.654180   -0.878355
     24          1           0       -1.627265    1.964044   -0.882102
     25          1           0       -3.158688    1.923675   -0.000452
     26          1           0       -1.626926    1.964596    0.880567
 ---------------------------------------------------------------------
                    Distance matrix (angstroms):
                    1          2          3          4          5
     1  C    0.000000
     2  C    1.507656   0.000000
     3  C    2.486367   1.352394   0.000000
     4  C    3.876932   2.518164   1.449752   0.000000
     5  C    4.943807   3.737637   2.465998   1.353973   0.000000
     6  C    6.334008   5.032008   3.848623   2.517024   1.461264
     7  C    7.342278   6.154401   4.878784   3.698171   2.418793
     8  C    8.810628   7.575248   6.333393   5.076339   3.867940
     9  C    2.538314   1.507320   2.533553   3.102021   4.454694
    10  C    6.808913   5.359246   4.434139   2.984625   2.544296
    11  H    1.099820   2.163274   3.219247   4.532908   5.631390
    12  H    1.099819   2.163298   3.219286   4.532966   5.631379
    13  H    1.094505   2.169667   2.611769   4.059246   4.888795
    14  H    2.639528   2.089602   1.091180   2.150712   2.653611
    15  H    4.284817   2.790401   2.180418   1.086926   2.107905
    16  H    4.968943   4.020552   2.668202   2.098796   1.091140
    17  H    7.204888   6.183287   4.843932   3.912131   2.558394
    18  H    9.115471   7.779738   6.632489   5.264370   4.228603
    19  H    9.344174   8.158590   6.897414   5.702032   4.466856
    20  H    9.344300   8.158874   6.897646   5.702484   4.467152
    21  H    3.498524   2.185454   2.713478   2.723518   4.036410
    22  H    2.801184   2.156094   3.252360   3.862697   5.188775
    23  H    2.800707   2.156133   3.252840   3.863466   5.189697
    24  H    6.578050   5.112079   4.332795   2.954688   2.834121
    25  H    7.899802   6.450034   5.513394   4.063959   3.479983
    26  H    6.577823   5.111727   4.332639   2.954454   2.834161
                    6          7          8          9         10
     6  C    0.000000
     7  C    1.353027   0.000000
     8  C    2.575324   1.499556   0.000000
     9  C    5.490261   6.761363   8.059994   0.000000
    10  C    1.511413   2.528243   3.139166   5.396308   0.000000
    11  H    6.987198   8.018532   9.471049   2.811601   7.386665
    12  H    6.987195   8.018390   9.470901   2.811509   7.386845
    13  H    6.340107   7.190583   8.686666   3.489040   7.043422
    14  H    4.114841   4.900617   6.398321   3.495389   5.005955
    15  H    2.764411   4.094612   5.299658   2.800873   2.633444
    16  H    2.166444   2.582118   4.076481   5.026105   3.511022
    17  H    2.085090   1.091165   2.187974   7.010201   3.490238
    18  H    2.786761   2.179238   1.092792   8.062967   2.775744
    19  H    3.284715   2.150479   1.099275   8.699203   3.898617
    20  H    3.285352   2.150401   1.099254   8.699663   3.900016
    21  H    4.841961   6.169647   7.364607   1.092150   4.518690
    22  H    6.201997   7.468805   8.749849   1.099357   6.057497
    23  H    6.203022   7.469990   8.751093   1.099338   6.058328
    24  H    2.160850   3.247159   3.893950   5.001141   1.097411
    25  H    2.178117   2.686906   2.724580   6.442208   1.091382
    26  H    2.160896   3.247228   3.894001   5.000404   1.097412
                   11         12         13         14         15
    11  H    0.000000
    12  H    1.759271   0.000000
    13  H    1.775514   1.775502   0.000000
    14  H    3.414878   3.414920   2.292467   0.000000
    15  H    4.840848   4.840974   4.703624   3.105966   0.000000
    16  H    5.690151   5.690088   4.672739   2.388423   3.063731
    17  H    7.904597   7.904354   6.893385   4.621895   4.552532
    18  H    9.744846   9.744558   9.117398   6.866089   5.262104
    19  H    9.932080  10.086529   9.164548   6.886167   5.979418
    20  H   10.086754   9.932148   9.164518   6.886191   5.980149
    21  H    3.819955   3.820165   4.338054   3.793196   2.077637
    22  H    3.161359   2.626355   3.805077   4.130746   3.538948
    23  H    2.625937   3.160363   3.804825   4.131149   3.539671
    24  H    7.008732   7.226841   6.903977   5.014420   2.416856
    25  H    8.471017   8.471164   8.118331   6.038314   3.710134
    26  H    7.226302   7.008732   6.903925   5.014508   2.416272
                   16         17         18         19         20
    16  H    0.000000
    17  H    2.239028   0.000000
    18  H    4.679283   3.110019   0.000000
    19  H    4.550325   2.540782   1.769633   0.000000
    20  H    4.550231   2.539853   1.769639   1.758369   0.000000
    21  H    4.804021   6.569769   7.255168   8.034398   8.035123
    22  H    5.738928   7.718863   8.730057   9.468989   9.304634
    23  H    5.739819   7.720085   8.731483   9.305416   9.470526
    24  H    3.844886   4.127609   3.506129   4.451796   4.788655
    25  H    4.334814   3.767133   2.029835   3.468742   3.470414
    26  H    3.845117   4.127712   3.505506   4.787566   4.453614
                   21         22         23         24         25
    21  H    0.000000
    22  H    1.770228   0.000000
    23  H    1.770230   1.758910   0.000000
    24  H    4.086786   5.770826   5.496328   0.000000
    25  H    5.522229   7.077929   7.078829   1.767539   0.000000
    26  H    4.086087   5.494734   5.770618   1.762669   1.767530
                   26
    26  H    0.000000
 Stoichiometry    C10H16
 Framework group  C1[X(C10H16)]
 Deg. of freedom    72
 Full point group                 C1      NOp   1
 Largest Abelian subgroup         C1      NOp   1
 Largest concise Abelian subgroup C1      NOp   1
                         Standard orientation:                         
 ---------------------------------------------------------------------
 Center     Atomic      Atomic             Coordinates (Angstroms)
 Number     Number       Type             X           Y           Z
 ---------------------------------------------------------------------
      1          6           0        4.186043   -0.985243   -0.000113
      2          6           0        2.965678   -0.099955    0.000017
      3          6           0        1.724259   -0.636470   -0.000213
      4          6           0        0.452578    0.059668   -0.000179
      5          6           0       -0.741079   -0.579413   -0.000205
      6          6           0       -2.064372    0.040415   -0.000137
      7          6           0       -3.152878   -0.763225    0.000253
      8          6           0       -4.604173   -0.385851    0.000427
      9          6           0        3.260391    1.378273    0.000567
     10          6           0       -2.133175    1.550261   -0.000541
     11          1           0        4.817179   -0.791217   -0.879673
     12          1           0        4.817098   -0.791647    0.879598
     13          1           0        3.922096   -2.047445   -0.000374
     14          1           0        1.652379   -1.725280   -0.000493
     15          1           0        0.469127    1.146468   -0.000113
     16          1           0       -0.735417   -1.670538   -0.000304
     17          1           0       -2.968126   -1.838635    0.000440
     18          1           0       -4.773466    0.693748    0.001475
     19          1           0       -5.114894   -0.802710   -0.879231
     20          1           0       -5.115042   -0.804470    0.879137
     21          1           0        2.363003    2.000757    0.000075
     22          1           0        3.859006    1.653716    0.880554
     23          1           0        3.860320    1.654180   -0.878355
     24          1           0       -1.627265    1.964044   -0.882102
     25          1           0       -3.158688    1.923675   -0.000452
     26          1           0       -1.626926    1.964596    0.880567
 ---------------------------------------------------------------------
 Rotational constants (GHZ):           4.0045797           0.4300443           0.3921027
 Standard basis: def2TZVP (5D, 7F)
 There are   456 symmetry adapted cartesian basis functions of A   symmetry.
 There are   406 symmetry adapted basis functions of A   symmetry.
   406 basis functions,   638 primitive gaussians,   456 cartesian basis functions
    38 alpha electrons       38 beta electrons
       nuclear repulsion energy       478.6004483981 Hartrees.
 NAtoms=   26 NActive=   26 NUniq=   26 SFac= 1.00D+00 NAtFMM=   60 NAOKFM=F Big=F
 Integral buffers will be    131072 words long.
 Regular integral format.
 Two-electron integral symmetry is turned on.
 ------------------------------------------------------------------------------
 Polarizable Continuum Model (PCM)
 =================================
 Model                : PCM.
 Atomic radii         : SMD-Coulomb.
 Polarization charges : Total charges.
 Charge compensation  : None.
 Solution method      : On-the-fly selection.
 Cavity type          : VdW (van der Waals Surface) (Alpha=1.000).
 Cavity algorithm     : GePol (No added spheres)
                        Default sphere list used, NSphG=   26.
                        Lebedev-Laikov grids with approx.  5.0 points / Ang**2.
                        Smoothing algorithm: York/Karplus (Gamma=1.0000).
                        Polarization charges: spherical gaussians, with
                                              point-specific exponents (IZeta= 3).
                        Self-potential: point-specific (ISelfS= 7).
                        Self-field    : sphere-specific E.n sum rule (ISelfD= 2).
 Solvent              : Ethanol, Eps=  24.852000 Eps(inf)=   1.852593
 ------------------------------------------------------------------------------
 ------------------------------------------------------------------------------
 Atomic radii for non-electrostatic terms: SMD-CDS.
 ------------------------------------------------------------------------------
 Nuclear repulsion after PCM non-electrostatic terms =      478.5987318692 Hartrees.
 One-electron integrals computed using PRISM.
   1 Symmetry operations used in ECPInt.
 ECPInt:  NShTT=   15225 NPrTT=   44224 LenC2=   13758 LenP2D=   30430.
 LDataN:  DoStor=T MaxTD1= 6 Len=  172
 NBasis=   406 RedAO= T EigKep=  3.93D-05  NBF=   406
 NBsUse=   406 1.00D-06 EigRej= -1.00D+00 NBFU=   406
 ExpMin= 9.52D-02 ExpMax= 1.36D+04 ExpMxC= 4.63D+02 IAcc=3 IRadAn=         5 AccDes= 0.00D+00
 Harris functional with IExCor= 1009 and IRadAn=       5 diagonalized for initial guess.
 HarFok:  IExCor= 1009 AccDes= 0.00D+00 IRadAn=         5 IDoV= 1 UseB2=F ITyADJ=14
 ICtDFT=  3500011 ScaDFX=  1.000000  1.000000  1.000000  1.000000
 FoFCou: FMM=F IPFlag=           0 FMFlag=      100000 FMFlg1=           0
         NFxFlg=           0 DoJE=T BraDBF=F KetDBF=T FulRan=T
         wScrn=  0.000000 ICntrl=       500 IOpCl=  0 I1Cent=   200000004 NGrid=           0
         NMat0=    1 NMatS0=      1 NMatT0=    0 NMatD0=    1 NMtDS0=    0 NMtDT0=    0
 Petite list used in FoFCou.
 Requested convergence on RMS density matrix=1.00D-08 within 128 cycles.
 Requested convergence on MAX density matrix=1.00D-06.
 Requested convergence on             energy=1.00D-06.
 No special actions if energy rises.
 Inv3:  Mode=1 IEnd=    11116875.
 Iteration    1 A*A^-1 deviation from unit magnitude is 3.22D-15 for   1341.
 Iteration    1 A*A^-1 deviation from orthogonality  is 2.64D-15 for   1524     52.
 Iteration    1 A^-1*A deviation from unit magnitude is 3.11D-15 for    460.
 Iteration    1 A^-1*A deviation from orthogonality  is 1.84D-15 for   1550    268.
 Error on total polarization charges =  0.05963
 SCF Done:  E(RPBE1PBE) =  -390.324964013     A.U. after   11 cycles
            NFock= 11  Conv=0.88D-08     -V/T= 2.0060
 SMD-CDS (non-electrostatic) energy       (kcal/mol) =      -1.08
 (included in total energy above)
 DoSCS=F DFT=T ScalE2(SS,OS)=  1.000000  1.000000
 ExpMin= 9.52D-02 ExpMax= 1.36D+04 ExpMxC= 4.63D+02 IAcc=3 IRadAn=         5 AccDes= 0.00D+00
 HarFok:  IExCor=  205 AccDes= 0.00D+00 IRadAn=         5 IDoV=-2 UseB2=F ITyADJ=14
 ICtDFT= 12500011 ScaDFX=  1.000000  1.000000  1.000000  1.000000
 Range of M.O.s used for correlation:    11   406
 NBasis=   406 NAE=    38 NBE=    38 NFC=    10 NFV=     0
 NROrb=    396 NOA=    28 NOB=    28 NVA=   368 NVB=   368

 **** Warning!!: The largest alpha MO coefficient is  0.35071112D+02

 NEqPCM:  Using non-equilibrium solvation (IEInf=1, Eps=  24.8520, EpsInf=   1.8526)
 Inv3:  Mode=1 IEnd=    11116875.
 Iteration    1 A*A^-1 deviation from unit magnitude is 3.89D-15 for    120.
 Iteration    1 A*A^-1 deviation from orthogonality  is 2.35D-15 for   1456    243.
 Iteration    1 A^-1*A deviation from unit magnitude is 3.66D-15 for    120.
 Iteration    1 A^-1*A deviation from orthogonality  is 1.67D-15 for   1848    506.
 Orbital symmetries:
       Occupied  (A) (A) (A) (A) (A) (A) (A) (A) (A) (A) (A) (A)
                 (A) (A) (A) (A) (A) (A) (A) (A) (A) (A) (A) (A)
                 (A) (A) (A) (A) (A) (A) (A) (A) (A) (A) (A) (A)
                 (A) (A)
       Virtual   (A) (A) (A) (A) (A) (A) (A) (A) (A) (A) (A) (A)
                 (A) (A) (A) (A) (A) (A) (A) (A) (A) (A) (A) (A)
                 (A) (A) (A) (A) (A) (A) (A) (A) (A) (A) (A) (A)
                 (A) (A) (A) (A) (A) (A) (A) (A) (A) (A) (A) (A)
                 (A) (A) (A) (A) (A) (A) (A) (A) (A) (A) (A) (A)
                 (A) (A) (A) (A) (A) (A) (A) (A) (A) (A) (A) (A)
                 (A) (A) (A) (A) (A) (A) (A) (A) (A) (A) (A) (A)
                 (A) (A) (A) (A) (A) (A) (A) (A) (A) (A) (A) (A)
                 (A) (A) (A) (A) (A) (A) (A) (A) (A) (A) (A) (A)
                 (A) (A) (A) (A) (A) (A) (A) (A) (A) (A) (A) (A)
                 (A) (A) (A) (A) (A) (A) (A) (A) (A) (A) (A) (A)
                 (A) (A) (A) (A) (A) (A) (A) (A) (A) (A) (A) (A)
                 (A) (A) (A) (A) (A) (A) (A) (A) (A) (A) (A) (A)
                 (A) (A) (A) (A) (A) (A) (A) (A) (A) (A) (A) (A)
                 (A) (A) (A) (A) (A) (A) (A) (A) (A) (A) (A) (A)
                 (A) (A) (A) (A) (A) (A) (A) (A) (A) (A) (A) (A)
                 (A) (A) (A) (A) (A) (A) (A) (A) (A) (A) (A) (A)
                 (A) (A) (A) (A) (A) (A) (A) (A) (A) (A) (A) (A)
                 (A) (A) (A) (A) (A) (A) (A) (A) (A) (A) (A) (A)
                 (A) (A) (A) (A) (A) (A) (A) (A) (A) (A) (A) (A)
                 (A) (A) (A) (A) (A) (A) (A) (A) (A) (A) (A) (A)
                 (A) (A) (A) (A) (A) (A) (A) (A) (A) (A) (A) (A)
                 (A) (A) (A) (A) (A) (A) (A) (A) (A) (A) (A) (A)
                 (A) (A) (A) (A) (A) (A) (A) (A) (A) (A) (A) (A)
                 (A) (A) (A) (A) (A) (A) (A) (A) (A) (A) (A) (A)
                 (A) (A) (A) (A) (A) (A) (A) (A) (A) (A) (A) (A)
                 (A) (A) (A) (A) (A) (A) (A) (A) (A) (A) (A) (A)
                 (A) (A) (A) (A) (A) (A) (A) (A) (A) (A) (A) (A)
                 (A) (A) (A) (A) (A) (A) (A) (A) (A) (A) (A) (A)
                 (A) (A) (A) (A) (A) (A) (A) (A) (A) (A) (A) (A)
                 (A) (A) (A) (A) (A) (A) (A) (A)
   200 initial guesses have been made.
 Convergence on wavefunction:    0.001000000000000
 Iteration     1 Dimension   200 NMult     0 NNew    200
 CISAX will form   200 AO SS matrices at one time.
 New state      3 was old state      4
 New state      4 was old state      5
 New state      5 was old state      6
 New state      6 was old state      8
 New state      8 was old state      3
 New state      9 was old state     12
 New state     12 was old state     16
 New state     14 was old state     19
 New state     16 was old state      9
 New state     19 was old state     23
 New state     20 was old state     24
 New state     21 was old state     20
 New state     22 was old state     21
 New state     23 was old state     22
 New state     24 was old state     14
 New state     26 was old state     28
 New state     28 was old state     30
 New state     29 was old state     26
 New state     30 was old state     31
 New state     31 was old state     29
 New state     32 was old state     38
 New state     33 was old state     32
 New state     35 was old state     36
 New state     36 was old state     42
 New state     37 was old state     33
 New state     38 was old state     37
 New state     39 was old state     45
 New state     40 was old state     35
 New state     41 was old state     39
 New state     42 was old state     40
 New state     43 was old state     41
 New state     44 was old state     43
 New state     45 was old state     44
 New state     46 was old state     48
 New state     47 was old state     49
 New state     48 was old state     46
 New state     49 was old state     51
 New state     50 was old state     57
 Iteration     2 Dimension   300 NMult   200 NNew    100
 New state      4 was old state      8
 New state      5 was old state      4
 New state      6 was old state      5
 New state      8 was old state      6
 New state     11 was old state     16
 New state     12 was old state     11
 New state     13 was old state     12
 New state     14 was old state     13
 New state     15 was old state     14
 New state     16 was old state     15
 New state     18 was old state     24
 New state     19 was old state     18
 New state     20 was old state     19
 New state     21 was old state     20
 New state     22 was old state     21
 New state     23 was old state     22
 New state     24 was old state     23
 New state     27 was old state     29
 New state     28 was old state     27
 New state     29 was old state     28
 New state     30 was old state     31
 New state     31 was old state     30
 New state     36 was old state     37
 New state     37 was old state     36
 New state     39 was old state     41
 New state     41 was old state     39
 New state     49 was old state     51
 Iteration     3 Dimension   400 NMult   300 NNew    100
 New state     48 was old state     49
 New state     49 was old state     48
 Iteration     4 Dimension   480 NMult   400 NNew     80
 Iteration     5 Dimension   488 NMult   480 NNew      8
 ***********************************************************************
 Excited states from <AA,BB:AA,BB> singles matrix:
 ***********************************************************************
 
 Ground to excited state transition densities written to RWF  633
 Ground to excited state transition electric dipole moments (Au):
       state          X           Y           Z        Dip. S.      Osc.
         1         3.6540      0.5200      0.0000     13.6223      1.4271
         2         0.2550      0.0728     -0.0000      0.0703      0.0097
         3         0.0000      0.0001     -0.2361      0.0558      0.0084
         4         0.2105     -0.2305      0.0004      0.0975      0.0152
         5        -0.0004      0.0004      0.0269      0.0007      0.0001
         6         0.0005      0.0003      0.0307      0.0009      0.0002
         7         0.1180      0.1768     -0.0000      0.0452      0.0074
         8         0.0009      0.0011     -0.0124      0.0002      0.0000
         9        -0.0000     -0.0001      0.0052      0.0000      0.0000
        10        -0.0000      0.0001     -0.0236      0.0006      0.0001
        11         0.0003      0.1321      0.0004      0.0174      0.0032
        12         0.0002      0.0008     -0.0151      0.0002      0.0000
        13        -0.0001     -0.0008      0.0402      0.0016      0.0003
        14        -0.0001      0.0001     -0.0371      0.0014      0.0003
        15        -0.0001     -0.0001      0.0170      0.0003      0.0001
        16         0.0002     -0.0003     -0.0430      0.0019      0.0004
        17        -0.0017     -0.0014     -0.0005      0.0000      0.0000
        18        -0.8554     -0.9232      0.0002      1.5841      0.3103
        19        -0.0007     -0.0009     -0.0894      0.0080      0.0016
        20        -0.0008     -0.0012     -0.1075      0.0116      0.0023
        21        -0.0002     -0.0001     -0.0824      0.0068      0.0014
        22        -0.3401      0.1399     -0.0000      0.1353      0.0275
        23         0.0001      0.0003     -0.0538      0.0029      0.0006
        24         0.2534      0.0206      0.0002      0.0646      0.0133
        25         0.0003      0.0000     -0.1289      0.0166      0.0035
        26        -0.0001     -0.0004      0.1494      0.0223      0.0047
        27        -0.0728     -0.0298     -0.0006      0.0062      0.0013
        28        -0.2062      0.4714      0.0006      0.2648      0.0561
        29         0.0002     -0.0010     -0.1255      0.0157      0.0034
        30         0.0085      0.2996     -0.0012      0.0898      0.0192
        31         0.0002      0.0003     -0.0373      0.0014      0.0003
        32         0.0003      0.0002     -0.0392      0.0015      0.0003
        33         0.0002     -0.0005      0.1298      0.0168      0.0037
        34        -0.0003      0.0014     -0.0846      0.0072      0.0016
        35         0.0018     -0.0010     -0.0450      0.0020      0.0005
        36        -0.3180      0.0864     -0.0008      0.1086      0.0244
        37        -0.0012      0.0010      0.1079      0.0116      0.0026
        38        -0.0001      0.0000     -0.1092      0.0119      0.0027
        39        -0.0856      0.0913      0.0013      0.0157      0.0036
        40        -0.2847      0.3964     -0.0007      0.2381      0.0544
        41        -0.0004      0.0013      0.0759      0.0058      0.0013
        42         0.0001      0.0002      0.1129      0.0127      0.0030
        43        -0.0001      0.0003      0.1111      0.0123      0.0029
        44         0.3118     -0.2831     -0.0002      0.1774      0.0414
        45        -0.0007      0.0005      0.0910      0.0083      0.0020
        46         0.0004     -0.0002      0.1633      0.0267      0.0063
        47        -0.1423      0.0941      0.0008      0.0291      0.0069
        48        -0.1124      0.0230     -0.0010      0.0132      0.0031
        49         0.0002      0.0000     -0.0221      0.0005      0.0001
        50        -0.0003     -0.0002      0.0556      0.0031      0.0007
 Ground to excited state transition velocity dipole moments (Au):
       state          X           Y           Z        Dip. S.      Osc.
         1        -0.5708     -0.0818     -0.0000      0.3325      1.4106
         2        -0.0515     -0.0156      0.0000      0.0029      0.0094
         3         0.0000     -0.0000      0.0579      0.0033      0.0099
         4        -0.0500      0.0532     -0.0001      0.0053      0.0152
         5         0.0001     -0.0001     -0.0062      0.0000      0.0001
         6        -0.0001     -0.0001     -0.0038      0.0000      0.0000
         7        -0.0303     -0.0426     -0.0000      0.0027      0.0074
         8        -0.0002     -0.0003      0.0040      0.0000      0.0000
         9         0.0000      0.0000     -0.0018      0.0000      0.0000
        10         0.0000     -0.0000      0.0083      0.0001      0.0002
        11        -0.0005     -0.0351     -0.0001      0.0012      0.0030
        12        -0.0001     -0.0002      0.0046      0.0000      0.0001
        13         0.0000      0.0002     -0.0125      0.0002      0.0004
        14         0.0000     -0.0000      0.0111      0.0001      0.0003
        15         0.0000      0.0000     -0.0049      0.0000      0.0001
        16        -0.0001      0.0001      0.0130      0.0002      0.0004
        17         0.0005      0.0004      0.0025      0.0000      0.0000
        18         0.2488      0.2708     -0.0001      0.1352      0.3068
        19         0.0002      0.0003      0.0257      0.0007      0.0015
        20         0.0002      0.0003      0.0345      0.0012      0.0027
        21         0.0000      0.0000      0.0239      0.0006      0.0013
        22         0.1047     -0.0401      0.0000      0.0126      0.0275
        23        -0.0000     -0.0001      0.0233      0.0005      0.0012
        24        -0.0815     -0.0068     -0.0001      0.0067      0.0145
        25        -0.0001     -0.0000      0.0416      0.0017      0.0037
        26         0.0000      0.0001     -0.0475      0.0023      0.0048
        27         0.0242      0.0082      0.0002      0.0007      0.0014
        28         0.0649     -0.1481     -0.0002      0.0262      0.0548
        29        -0.0001      0.0003      0.0426      0.0018      0.0038
        30        -0.0055     -0.0931      0.0004      0.0087      0.0181
        31        -0.0001     -0.0001      0.0104      0.0001      0.0002
        32        -0.0001     -0.0001      0.0118      0.0001      0.0003
        33        -0.0001      0.0002     -0.0418      0.0017      0.0035
        34         0.0001     -0.0005      0.0266      0.0007      0.0014
        35        -0.0006      0.0003      0.0105      0.0001      0.0002
        36         0.1061     -0.0285      0.0002      0.0121      0.0239
        37         0.0004     -0.0003     -0.0330      0.0011      0.0021
        38         0.0000      0.0000      0.0335      0.0011      0.0022
        39         0.0272     -0.0291     -0.0004      0.0016      0.0031
        40         0.0962     -0.1321      0.0002      0.0267      0.0520
        41         0.0001     -0.0004     -0.0251      0.0006      0.0012
        42        -0.0000     -0.0001     -0.0311      0.0010      0.0019
        43         0.0000     -0.0001     -0.0349      0.0012      0.0023
        44        -0.1100      0.0988      0.0001      0.0219      0.0416
        45         0.0003     -0.0002     -0.0240      0.0006      0.0011
        46        -0.0002      0.0001     -0.0598      0.0036      0.0067
        47         0.0493     -0.0340     -0.0003      0.0036      0.0067
        48         0.0388     -0.0077      0.0003      0.0016      0.0029
        49        -0.0001     -0.0000      0.0102      0.0001      0.0002
        50         0.0001      0.0000     -0.0231      0.0005      0.0010
 Ground to excited state transition magnetic dipole moments (Au):
       state          X           Y           Z
         1         0.0001      0.0003     -0.3748
         2        -0.0001     -0.0000     -0.2096
         3         0.3217     -0.1911     -0.0000
         4         0.0001      0.0011     -1.0037
         5         0.0452      0.5895      0.0013
         6         0.0241      0.1153     -0.0002
         7         0.0013      0.0012     -0.0470
         8        -0.2217     -0.2654     -0.0005
         9         0.0723      0.0975     -0.0004
        10        -0.0233      0.0995      0.0002
        11        -0.0016      0.0057     -0.0762
        12         0.1295     -0.1810      0.0003
        13        -0.2540      0.7053      0.0005
        14        -0.2665     -0.5278      0.0005
        15         1.3575     -0.1158      0.0000
        16         0.4680     -0.3829     -0.0004
        17         0.1876      0.3023      0.0006
        18        -0.0004     -0.0007     -0.2828
        19         0.0637     -0.5219     -0.0005
        20         0.3897      0.3841     -0.0006
        21        -0.2276     -0.1646     -0.0004
        22        -0.0003      0.0008     -0.0584
        23         0.3991     -0.2379      0.0001
        24        -0.0005      0.0000     -0.0218
        25        -0.1020      0.3108      0.0012
        26        -0.0549      0.1327      0.0005
        27        -0.0002     -0.0004      0.5319
        28         0.0002      0.0002     -0.6739
        29        -0.1138      0.2460     -0.0120
        30        -0.0011      0.0025      1.1407
        31         0.0535     -0.7318     -0.0000
        32        -0.2000      0.0316     -0.0009
        33        -0.1736      1.0155      0.0003
        34        -0.2915      0.0411      0.0001
        35        -0.7770      0.2973     -0.0023
        36        -0.0049      0.0028      0.4406
        37        -0.3572     -0.2025     -0.0001
        38        -1.1414     -0.5853     -0.0085
        39         0.0104      0.0073     -0.7613
        40        -0.0002      0.0007     -0.0299
        41        -0.9144     -0.2147      0.0017
        42         0.7648      0.1892      0.0015
        43        -0.1206      0.2890      0.0009
        44        -0.0010     -0.0005      1.1367
        45         0.2057      0.4748     -0.0019
        46        -0.0049      0.3197      0.0033
        47         0.0003      0.0016     -0.4777
        48        -0.0004     -0.0012      0.1932
        49         0.0430      0.1242      0.0004
        50         0.0040      0.0279     -0.0002
 Ground to excited state transition velocity quadrupole moments (Au):
       state          XX          YY          ZZ          XY          XZ          YZ
         1         0.0889     -0.0230     -0.0099      0.4094     -0.0001     -0.0001
         2         0.9551      0.0042     -0.0123      0.0664     -0.0000     -0.0000
         3         0.0013      0.0001      0.0000      0.0002      0.2158      0.2204
         4        -4.6770      0.0042     -0.0130     -0.9878     -0.0008     -0.0001
         5         0.0060      0.0002     -0.0003      0.0014     -0.5445     -0.0205
         6        -0.0016      0.0001     -0.0000     -0.0002     -0.0839     -0.0235
         7         0.1680     -0.0388      0.0081     -0.0172     -0.0002      0.0004
         8        -0.0011     -0.0003      0.0000     -0.0004      0.0797     -0.0608
         9        -0.0003      0.0002     -0.0002     -0.0003      0.0109     -0.0035
        10         0.0001      0.0002      0.0000      0.0002     -0.0565     -0.1307
        11        -0.5639     -0.2931      0.0032     -0.0207     -0.0037     -0.0011
        12        -0.0018     -0.0018      0.0003      0.0006      0.1529      0.0923
        13         0.0032      0.0019     -0.0000      0.0003     -0.4101     -0.1013
        14         0.0003      0.0001     -0.0004      0.0003      0.2709     -0.0900
        15         0.0002      0.0001     -0.0000     -0.0002      0.1758      0.2151
        16        -0.0033      0.0001     -0.0000     -0.0004      0.1795      0.2069
        17        -0.0022      0.0008     -0.0001     -0.0003     -0.3258      0.1875
        18        -0.1513      0.3561      0.0243     -0.4679      0.0010     -0.0005
        19        -0.0008      0.0003      0.0003     -0.0006      0.2794     -0.0201
        20         0.0005      0.0008     -0.0003     -0.0005     -0.2987      0.2598
        21         0.0000      0.0000      0.0000     -0.0000      0.2199     -0.1143
        22        -2.5708     -0.0523     -0.1934     -0.3101     -0.0002     -0.0004
        23        -0.0014     -0.0001     -0.0001      0.0000      0.2428      0.2791
        24        -0.2670     -0.0009     -0.1090     -0.0987     -0.0003     -0.0001
        25         0.0012      0.0001      0.0000      0.0013     -0.2827     -0.0924
        26         0.0021     -0.0001      0.0002      0.0004     -0.1310     -0.0957
        27         0.3839      0.0367      0.0999      0.5904      0.0006     -0.0004
        28         1.3121     -0.3114     -0.0194     -1.0634     -0.0006      0.0001
        29        -0.0063      0.0017     -0.0002     -0.0129     -0.1373     -0.2167
        30         1.2011     -0.3325     -0.0362      1.1316     -0.0017     -0.0017
        31         0.0025     -0.0004     -0.0000     -0.0003      0.6622      0.1470
        32        -0.0009      0.0002     -0.0001     -0.0004      0.0906     -0.0229
        33        -0.0015      0.0004     -0.0000      0.0014     -0.7598     -0.2767
        34         0.0049     -0.0009      0.0001     -0.0020      0.0946     -0.1527
        35         0.0110      0.0001      0.0003     -0.0002     -0.1213     -0.2135
        36        -1.8500     -0.0214     -0.0522      0.1305     -0.0022     -0.0012
        37        -0.0006     -0.0006     -0.0002     -0.0022      0.3726     -0.1617
        38        -0.0166      0.0026      0.0003     -0.0099      0.0213     -0.2661
        39        -1.3395      0.1641      0.0302     -1.0378     -0.0017      0.0020
        40         1.4770     -0.3677      0.0062     -1.0029     -0.0020     -0.0005
        41         0.0054     -0.0013      0.0000     -0.0004      0.0316     -0.2351
        42        -0.0009     -0.0003     -0.0001     -0.0003     -0.0141      0.5733
        43         0.0011     -0.0006      0.0002     -0.0005     -0.0717     -0.1012
        44        -1.0605      0.1122     -0.0288      0.5465      0.0004     -0.0007
        45         0.0032     -0.0003      0.0002     -0.0009     -0.2798      0.1621
        46        -0.0009     -0.0013      0.0002      0.0032     -0.3183      0.0546
        47         0.4610      0.1650      0.0593     -0.7917     -0.0013     -0.0003
        48        -0.6338      0.1483      0.0406      0.0796     -0.0001     -0.0002
        49         0.0004      0.0000     -0.0002      0.0002     -0.1563      0.1169
        50        -0.0001      0.0003     -0.0006     -0.0010      0.0097     -0.0484
 <0|del|b> * <b|rxdel|0> + <0|del|b> * <b|delr+rdel|0>
 Rotatory Strengths (R) in cgs (10**-40 erg-esu-cm/Gauss)
       state          XX          YY          ZZ    R(velocity)    E-M Angle
         1        -0.0869      0.0725     -0.2712     -0.0952       90.00
         2        -0.0015      0.0027      0.0050      0.0021       90.00
         3         0.0364     -0.0183     -0.0003      0.0059       90.00
         4         0.4335     -0.0036      0.0083      0.1461       89.89
         5        -0.1662      0.0049      0.0040     -0.0524       90.00
         6        -0.0154     -0.0002     -0.0106     -0.0087       90.00
         7        -0.0854     -0.0751     -0.0950     -0.0852       90.00
         8         0.1263      0.0917      0.1232      0.1137       85.08
         9         0.0037      0.0004      0.0025      0.0022       90.00
        10         0.0009     -0.0000     -0.0007      0.0001       90.00
        11        -0.4111      0.0095     -0.0907     -0.1641       94.05
        12         0.0988     -0.0202      0.0047      0.0278       90.00
        13         0.2784     -0.0127      0.0730      0.1129       89.20
        14         0.0507     -0.0094      0.0067      0.0160       90.00
        15        -0.0061      0.0664      0.0504      0.0369       90.00
        16        -0.0709     -0.0425     -0.0380     -0.0505       90.00
        17         0.3113      0.2303     -0.0116      0.1767       76.06
        18        -0.5005     -0.3000      0.1105     -0.2300       90.16
        19        -0.2995      0.0154     -0.0593     -0.1144       90.61
        20         0.2387      0.1810      0.0731      0.1643       89.37
        21        -0.0298     -0.0275     -0.0032     -0.0202       90.00
        22        -0.0503     -0.0788     -0.0208     -0.0500       90.00
        23         0.0589     -0.0268     -0.0057      0.0088       90.00
        24         0.0078      0.0539      0.0446      0.0354       90.00
        25         0.1143      0.0091      0.0007      0.0414       90.00
        26        -0.0124     -0.0049      0.0010     -0.0054       90.00
        27         0.2535     -0.0309      0.0081      0.0769       89.56
        28         0.2165     -0.0517      0.0625      0.0758       89.95
        29        -1.0559      0.0609      0.0285     -0.3222       92.16
        30         0.5582      0.0205     -0.0864      0.1641       89.88
        31         0.1615     -0.0112      0.0149      0.0551       90.00
        32        -0.0122      0.0179      0.0118      0.0058       90.00
        33         0.2440      0.0861      0.0374      0.1225       89.77
        34        -0.0291      0.0029     -0.0846     -0.0369       90.00
        35         0.1132      0.6103      0.4198      0.3811       86.45
        36        -0.0175     -0.6000     -0.4348     -0.3508       90.59
        37         0.2702     -0.2983     -0.1409     -0.0563       90.00
        38        -0.6429      0.0267     -0.0204     -0.2122       90.41
        39         0.5193      0.2294      0.0682      0.2723       89.26
        40        -0.6075      0.1587      0.1984     -0.0835       91.42
        41         0.0762     -0.2140     -0.0117     -0.0498       90.00
        42        -0.0516     -0.1059     -0.0209     -0.0595       90.00
        43        -0.0497     -0.0499     -0.0204     -0.0400       90.00
        44         0.0256      0.2343      0.0188      0.0929       89.95
        45        -0.0688      0.1180     -0.0239      0.0084       90.00
        46        -0.3362     -0.0089      0.0093     -0.1119       90.51
        47         0.2612     -0.0866      0.0181      0.0642       90.00
        48         0.1022      0.0140      0.0012      0.0391       90.00
        49         0.0019     -0.0094      0.0057     -0.0006       90.00
        50         0.0277     -0.0217      0.0069      0.0043       90.00
 1/2[<0|r|b>*<b|rxdel|0> + (<0|rxdel|b>*<b|r|0>)*]
 Rotatory Strengths (R) in cgs (10**-40 erg-esu-cm/Gauss)
       state          XX          YY          ZZ     R(length)
         1        -0.1775     -0.1226      0.0119     -0.0961
         2         0.0092      0.0016     -0.0059      0.0016
         3        -0.0036      0.0149     -0.0023      0.0030
         4        -0.0207      0.1810      0.2901      0.1501
         5         0.0124     -0.1514     -0.0248     -0.0546
         6        -0.0080     -0.0211      0.0042     -0.0083
         7        -0.1091     -0.1438     -0.0009     -0.0846
         8         0.1413      0.2042     -0.0044      0.1137
         9         0.0003      0.0039      0.0016      0.0019
        10        -0.0001     -0.0056      0.0038     -0.0006
        11         0.0003     -0.5289      0.0193     -0.1698
        12        -0.0205      0.1026      0.0036      0.0286
        13        -0.0111      0.3804     -0.0139      0.1185
        14        -0.0140      0.0489      0.0132      0.0161
        15         0.1144     -0.0063     -0.0002      0.0360
        16        -0.0661     -0.0765     -0.0107     -0.0511
        17         0.2234      0.3053      0.0002      0.1763
        18        -0.2636     -0.4762      0.0431     -0.2322
        19         0.0333     -0.3409     -0.0298     -0.1125
        20         0.2259      0.3197     -0.0486      0.1657
        21        -0.0245     -0.0154     -0.0226     -0.0209
        22        -0.0778     -0.0743     -0.0015     -0.0512
        23        -0.0340      0.0572      0.0041      0.0091
        24         0.0982     -0.0000      0.0031      0.0337
        25         0.0181     -0.0038      0.1059      0.0401
        26        -0.0020      0.0382     -0.0510     -0.0049
        27        -0.0103     -0.0081      0.2378      0.0731
        28         0.0337     -0.0803      0.2663      0.0732
        29         0.0195      0.1712     -1.0689     -0.2927
        30         0.0064     -0.5280      0.9505      0.1430
        31        -0.0080      0.1764     -0.0005      0.0560
        32         0.0426     -0.0039     -0.0236      0.0050
        33         0.0290      0.3667     -0.0274      0.1228
        34        -0.0716     -0.0411      0.0032     -0.0365
        35         1.0083      0.2025     -0.0735      0.3791
        36        -1.0988     -0.1731      0.2348     -0.3457
        37        -0.3145      0.1392      0.0077     -0.0559
        38        -0.0738      0.0015     -0.6529     -0.2417
        39         0.6305     -0.4722      0.7212      0.2932
        40        -0.0373     -0.2052     -0.0155     -0.0860
        41        -0.2744      0.1970     -0.0927     -0.0567
        42        -0.0566     -0.0321     -0.1170     -0.0686
        43        -0.0060     -0.0627     -0.0714     -0.0467
        44         0.2195     -0.1052      0.1690      0.0944
        45         0.1075     -0.1715      0.1220      0.0194
        46         0.0014      0.0454     -0.3766     -0.1099
        47         0.0317     -0.1074      0.2597      0.0613
        48        -0.0351      0.0196      0.1367      0.0404
        49        -0.0060     -0.0029      0.0060     -0.0010
        50         0.0007      0.0031      0.0081      0.0040
  1/2[<0|del|b>*<b|r|0> + (<0|r|b>*<b|del|0>)*] (Au)
       state          X           Y           Z        Dip. S.   Osc.(frdel)
         1        -2.0857     -0.0426     -0.0000      2.1282      1.4188
         2        -0.0131     -0.0011     -0.0000      0.0143      0.0095
         3         0.0000     -0.0000     -0.0137      0.0137      0.0091
         4        -0.0105     -0.0123     -0.0000      0.0228      0.0152
         5        -0.0000     -0.0000     -0.0002      0.0002      0.0001
         6        -0.0000     -0.0000     -0.0001      0.0001      0.0001
         7        -0.0036     -0.0075      0.0000      0.0111      0.0074
         8        -0.0000     -0.0000     -0.0000      0.0000      0.0000
         9        -0.0000     -0.0000     -0.0000      0.0000      0.0000
        10        -0.0000     -0.0000     -0.0002      0.0002      0.0001
        11        -0.0000     -0.0046     -0.0000      0.0046      0.0031
        12        -0.0000     -0.0000     -0.0001      0.0001      0.0000
        13        -0.0000     -0.0000     -0.0005      0.0005      0.0003
        14        -0.0000     -0.0000     -0.0004      0.0004      0.0003
        15        -0.0000     -0.0000     -0.0001      0.0001      0.0001
        16        -0.0000     -0.0000     -0.0006      0.0006      0.0004
        17        -0.0000     -0.0000     -0.0000      0.0000      0.0000
        18        -0.2128     -0.2500     -0.0000      0.4629      0.3086
        19        -0.0000     -0.0000     -0.0023      0.0023      0.0015
        20        -0.0000     -0.0000     -0.0037      0.0037      0.0025
        21        -0.0000     -0.0000     -0.0020      0.0020      0.0013
        22        -0.0356     -0.0056     -0.0000      0.0412      0.0275
        23        -0.0000     -0.0000     -0.0013      0.0013      0.0008
        24        -0.0206     -0.0001     -0.0000      0.0208      0.0139
        25        -0.0000     -0.0000     -0.0054      0.0054      0.0036
        26        -0.0000     -0.0000     -0.0071      0.0071      0.0047
        27        -0.0018     -0.0002     -0.0000      0.0020      0.0013
        28        -0.0134     -0.0698     -0.0000      0.0832      0.0555
        29        -0.0000     -0.0000     -0.0054      0.0054      0.0036
        30        -0.0000     -0.0279     -0.0000      0.0279      0.0186
        31        -0.0000     -0.0000     -0.0004      0.0004      0.0003
        32        -0.0000     -0.0000     -0.0005      0.0005      0.0003
        33        -0.0000     -0.0000     -0.0054      0.0054      0.0036
        34        -0.0000     -0.0000     -0.0023      0.0023      0.0015
        35        -0.0000     -0.0000     -0.0005      0.0005      0.0003
        36        -0.0337     -0.0025     -0.0000      0.0362      0.0241
        37        -0.0000     -0.0000     -0.0036      0.0036      0.0024
        38        -0.0000      0.0000     -0.0037      0.0037      0.0024
        39        -0.0023     -0.0027     -0.0000      0.0050      0.0033
        40        -0.0274     -0.0524     -0.0000      0.0798      0.0532
        41        -0.0000     -0.0000     -0.0019      0.0019      0.0013
        42        -0.0000     -0.0000     -0.0035      0.0035      0.0023
        43        -0.0000     -0.0000     -0.0039      0.0039      0.0026
        44        -0.0343     -0.0280     -0.0000      0.0623      0.0415
        45        -0.0000     -0.0000     -0.0022      0.0022      0.0015
        46        -0.0000     -0.0000     -0.0098      0.0098      0.0065
        47        -0.0070     -0.0032     -0.0000      0.0102      0.0068
        48        -0.0044     -0.0002     -0.0000      0.0045      0.0030
        49        -0.0000     -0.0000     -0.0002      0.0002      0.0002
        50        -0.0000     -0.0000     -0.0013      0.0013      0.0009

 Excitation energies and oscillator strengths:
 
 Excited State   1:      Singlet-A      4.2761 eV  289.95 nm  f=1.4271  <S**2>=0.000
      38 -> 39         0.70716
 This state for optimization and/or second-order correction.
 Total Energy, E(TD-HF/TD-DFT) =  -390.167820573    
 Copying the excited state density for this state as the 1-particle RhoCI density.
 
 Excited State   2:      Singlet-A      5.6152 eV  220.80 nm  f=0.0097  <S**2>=0.000
      37 -> 39         0.58732
      38 -> 40         0.38729
 
 Excited State   3:      Singlet-A      6.1654 eV  201.10 nm  f=0.0084  <S**2>=0.000
      38 -> 41         0.69909
 
 Excited State   4:      Singlet-A      6.3583 eV  194.99 nm  f=0.0152  <S**2>=0.000
      37 -> 39        -0.38189
      38 -> 40         0.58365
 
 Excited State   5:      Singlet-A      6.4149 eV  193.28 nm  f=0.0001  <S**2>=0.000
      38 -> 42         0.69464
 
 Excited State   6:      Singlet-A      6.5787 eV  188.46 nm  f=0.0002  <S**2>=0.000
      36 -> 39        -0.16295
      38 -> 43         0.66393
      38 -> 45        -0.15185
 
 Excited State   7:      Singlet-A      6.6631 eV  186.08 nm  f=0.0074  <S**2>=0.000
      35 -> 39        -0.29999
      38 -> 44         0.63783
 
 Excited State   8:      Singlet-A      6.6724 eV  185.82 nm  f=0.0000  <S**2>=0.000
      36 -> 39         0.67694
      38 -> 43         0.16435
 
 Excited State   9:      Singlet-A      7.0828 eV  175.05 nm  f=0.0000  <S**2>=0.000
      34 -> 39         0.68268
      36 -> 40         0.10398
 
 Excited State  10:      Singlet-A      7.1817 eV  172.64 nm  f=0.0001  <S**2>=0.000
      38 -> 43         0.14624
      38 -> 45         0.67026
 
 Excited State  11:      Singlet-A      7.4206 eV  167.08 nm  f=0.0032  <S**2>=0.000
      35 -> 39         0.62992
      38 -> 44         0.29423
 
 Excited State  12:      Singlet-A      7.4413 eV  166.62 nm  f=0.0000  <S**2>=0.000
      38 -> 46         0.61579
      38 -> 47         0.28646
 
 Excited State  13:      Singlet-A      7.4600 eV  166.20 nm  f=0.0003  <S**2>=0.000
      32 -> 39         0.21693
      33 -> 39         0.64008
 
 Excited State  14:      Singlet-A      7.6004 eV  163.13 nm  f=0.0003  <S**2>=0.000
      38 -> 46        -0.28205
      38 -> 47         0.60718
      38 -> 49         0.11210
 
 Excited State  15:      Singlet-A      7.7202 eV  160.60 nm  f=0.0001  <S**2>=0.000
      30 -> 39        -0.24293
      32 -> 39         0.57539
      33 -> 39        -0.23476
      34 -> 40        -0.10327
 
 Excited State  16:      Singlet-A      7.8020 eV  158.91 nm  f=0.0004  <S**2>=0.000
      38 -> 48         0.64992
      38 -> 49         0.19030
 
 Excited State  17:      Singlet-A      7.9426 eV  156.10 nm  f=0.0000  <S**2>=0.000
      38 -> 46         0.12267
      38 -> 48        -0.20391
      38 -> 49         0.64407
 
 Excited State  18:      Singlet-A      7.9966 eV  155.05 nm  f=0.3103  <S**2>=0.000
      37 -> 40         0.69705
 
 Excited State  19:      Singlet-A      8.0274 eV  154.45 nm  f=0.0016  <S**2>=0.000
      31 -> 39         0.64160
      32 -> 39        -0.13713
      33 -> 40        -0.10875
      37 -> 41        -0.14645
 
 Excited State  20:      Singlet-A      8.0640 eV  153.75 nm  f=0.0023  <S**2>=0.000
      31 -> 39         0.13772
      37 -> 41         0.63918
      37 -> 42         0.19303
 
 Excited State  21:      Singlet-A      8.1704 eV  151.75 nm  f=0.0014  <S**2>=0.000
      30 -> 39         0.63460
      31 -> 39         0.12594
      32 -> 39         0.24640
 
 Excited State  22:      Singlet-A      8.2963 eV  149.45 nm  f=0.0275  <S**2>=0.000
      38 -> 50         0.67814
      38 -> 51         0.14244
 
 Excited State  23:      Singlet-A      8.3514 eV  148.46 nm  f=0.0006  <S**2>=0.000
      37 -> 41        -0.20331
      37 -> 42         0.64812
 
 Excited State  24:      Singlet-A      8.3776 eV  147.99 nm  f=0.0133  <S**2>=0.000
      38 -> 50        -0.14270
      38 -> 51         0.68199
 
 Excited State  25:      Singlet-A      8.5086 eV  145.72 nm  f=0.0035  <S**2>=0.000
      28 -> 39         0.58056
      36 -> 40         0.10608
      37 -> 43         0.33421
 
 Excited State  26:      Singlet-A      8.5280 eV  145.39 nm  f=0.0047  <S**2>=0.000
      28 -> 39        -0.34122
      37 -> 43         0.58082
      37 -> 45        -0.10656
 
 Excited State  27:      Singlet-A      8.6006 eV  144.16 nm  f=0.0013  <S**2>=0.000
      37 -> 44         0.47843
      38 -> 52         0.49633
 
 Excited State  28:      Singlet-A      8.6552 eV  143.25 nm  f=0.0561  <S**2>=0.000
      29 -> 39         0.68908
      38 -> 52        -0.11235
 
 Excited State  29:      Singlet-A      8.6856 eV  142.75 nm  f=0.0034  <S**2>=0.000
      38 -> 53         0.66931
 
 Excited State  30:      Singlet-A      8.7243 eV  142.11 nm  f=0.0192  <S**2>=0.000
      37 -> 44         0.50648
      38 -> 52        -0.47171
 
 Excited State  31:      Singlet-A      8.8021 eV  140.86 nm  f=0.0003  <S**2>=0.000
      38 -> 54         0.67673
      38 -> 55         0.10027
 
 Excited State  32:      Singlet-A      8.9567 eV  138.43 nm  f=0.0003  <S**2>=0.000
      26 -> 39         0.13859
      28 -> 39        -0.12402
      34 -> 44         0.14134
      36 -> 40         0.63942
 
 Excited State  33:      Singlet-A      9.0635 eV  136.79 nm  f=0.0037  <S**2>=0.000
      37 -> 45         0.53012
      38 -> 55        -0.37713
      38 -> 57         0.13237
 
 Excited State  34:      Singlet-A      9.1138 eV  136.04 nm  f=0.0016  <S**2>=0.000
      37 -> 45         0.39248
      38 -> 55         0.53716
 
 Excited State  35:      Singlet-A      9.1531 eV  135.46 nm  f=0.0005  <S**2>=0.000
      26 -> 39         0.60547
      32 -> 40        -0.11714
      36 -> 40        -0.16000
      38 -> 57        -0.19981
 
 Excited State  36:      Singlet-A      9.1754 eV  135.13 nm  f=0.0244  <S**2>=0.000
      25 -> 39        -0.11638
      27 -> 39         0.68320
 
 Excited State  37:      Singlet-A      9.2057 eV  134.68 nm  f=0.0026  <S**2>=0.000
      26 -> 39         0.17755
      34 -> 40         0.10848
      37 -> 45        -0.12739
      38 -> 57         0.62608
 
 Excited State  38:      Singlet-A      9.2862 eV  133.51 nm  f=0.0027  <S**2>=0.000
      26 -> 39        -0.12852
      34 -> 40         0.51035
      36 -> 44         0.26125
      37 -> 46        -0.23411
      37 -> 47        -0.16608
 
 Excited State  39:      Singlet-A      9.2881 eV  133.49 nm  f=0.0036  <S**2>=0.000
      35 -> 40         0.66634
      38 -> 56         0.15197
 
 Excited State  40:      Singlet-A      9.3215 eV  133.01 nm  f=0.0544  <S**2>=0.000
      35 -> 40        -0.15563
      38 -> 56         0.67282
 
 Excited State  41:      Singlet-A      9.3363 eV  132.80 nm  f=0.0013  <S**2>=0.000
      34 -> 40         0.27364
      35 -> 43         0.10683
      36 -> 44         0.13667
      37 -> 46         0.48601
      37 -> 47         0.28693
      38 -> 57        -0.10986
      38 -> 58         0.13086
 
 Excited State  42:      Singlet-A      9.4821 eV  130.76 nm  f=0.0030  <S**2>=0.000
      35 -> 41         0.25361
      37 -> 46        -0.27030
      37 -> 47         0.47854
      37 -> 49         0.17032
      38 -> 58         0.18315
      38 -> 59        -0.11323
 
 Excited State  43:      Singlet-A      9.5220 eV  130.21 nm  f=0.0029  <S**2>=0.000
      37 -> 47        -0.23177
      37 -> 48        -0.16643
      38 -> 58         0.57251
      38 -> 59        -0.20963
 
 Excited State  44:      Singlet-A      9.5298 eV  130.10 nm  f=0.0414  <S**2>=0.000
      34 -> 42        -0.20453
      36 -> 41         0.65088
 
 Excited State  45:      Singlet-A      9.6301 eV  128.75 nm  f=0.0020  <S**2>=0.000
      35 -> 41         0.50903
      35 -> 43        -0.10683
      37 -> 46         0.21905
      37 -> 47        -0.16086
      37 -> 48         0.13621
      38 -> 58         0.13978
      38 -> 59         0.26368
 
 Excited State  46:      Singlet-A      9.6693 eV  128.22 nm  f=0.0063  <S**2>=0.000
      35 -> 41        -0.28734
      37 -> 46        -0.11994
      37 -> 47         0.13420
      37 -> 48         0.13053
      38 -> 58         0.26123
      38 -> 59         0.51901
 
 Excited State  47:      Singlet-A      9.6888 eV  127.97 nm  f=0.0069  <S**2>=0.000
      34 -> 41        -0.42935
      36 -> 42         0.51540
 
 Excited State  48:      Singlet-A      9.7419 eV  127.27 nm  f=0.0031  <S**2>=0.000
      25 -> 39         0.65647
      38 -> 60         0.17293
 
 Excited State  49:      Singlet-A      9.7599 eV  127.03 nm  f=0.0001  <S**2>=0.000
      23 -> 39        -0.14902
      33 -> 40         0.53758
      37 -> 48        -0.28467
 
 Excited State  50:      Singlet-A      9.7915 eV  126.62 nm  f=0.0007  <S**2>=0.000
      33 -> 40         0.30001
      35 -> 41        -0.14840
      37 -> 48         0.53099
      38 -> 59        -0.20750
 SavETr:  write IOETrn=   770 NScale= 10 NData=  16 NLR=1 NState=   50 LETran=     910.

 **********************************************************************

            Population analysis using the SCF Density.

 **********************************************************************

 Orbital symmetries:
       Occupied  (A) (A) (A) (A) (A) (A) (A) (A) (A) (A) (A) (A)
                 (A) (A) (A) (A) (A) (A) (A) (A) (A) (A) (A) (A)
                 (A) (A) (A) (A) (A) (A) (A) (A) (A) (A) (A) (A)
                 (A) (A)
       Virtual   (A) (A) (A) (A) (A) (A) (A) (A) (A) (A) (A) (A)
                 (A) (A) (A) (A) (A) (A) (A) (A) (A) (A) (A) (A)
                 (A) (A) (A) (A) (A) (A) (A) (A) (A) (A) (A) (A)
                 (A) (A) (A) (A) (A) (A) (A) (A) (A) (A) (A) (A)
                 (A) (A) (A) (A) (A) (A) (A) (A) (A) (A) (A) (A)
                 (A) (A) (A) (A) (A) (A) (A) (A) (A) (A) (A) (A)
                 (A) (A) (A) (A) (A) (A) (A) (A) (A) (A) (A) (A)
                 (A) (A) (A) (A) (A) (A) (A) (A) (A) (A) (A) (A)
                 (A) (A) (A) (A) (A) (A) (A) (A) (A) (A) (A) (A)
                 (A) (A) (A) (A) (A) (A) (A) (A) (A) (A) (A) (A)
                 (A) (A) (A) (A) (A) (A) (A) (A) (A) (A) (A) (A)
                 (A) (A) (A) (A) (A) (A) (A) (A) (A) (A) (A) (A)
                 (A) (A) (A) (A) (A) (A) (A) (A) (A) (A) (A) (A)
                 (A) (A) (A) (A) (A) (A) (A) (A) (A) (A) (A) (A)
                 (A) (A) (A) (A) (A) (A) (A) (A) (A) (A) (A) (A)
                 (A) (A) (A) (A) (A) (A) (A) (A) (A) (A) (A) (A)
                 (A) (A) (A) (A) (A) (A) (A) (A) (A) (A) (A) (A)
                 (A) (A) (A) (A) (A) (A) (A) (A) (A) (A) (A) (A)
                 (A) (A) (A) (A) (A) (A) (A) (A) (A) (A) (A) (A)
                 (A) (A) (A) (A) (A) (A) (A) (A) (A) (A) (A) (A)
                 (A) (A) (A) (A) (A) (A) (A) (A) (A) (A) (A) (A)
                 (A) (A) (A) (A) (A) (A) (A) (A) (A) (A) (A) (A)
                 (A) (A) (A) (A) (A) (A) (A) (A) (A) (A) (A) (A)
                 (A) (A) (A) (A) (A) (A) (A) (A) (A) (A) (A) (A)
                 (A) (A) (A) (A) (A) (A) (A) (A) (A) (A) (A) (A)
                 (A) (A) (A) (A) (A) (A) (A) (A) (A) (A) (A) (A)
                 (A) (A) (A) (A) (A) (A) (A) (A) (A) (A) (A) (A)
                 (A) (A) (A) (A) (A) (A) (A) (A) (A) (A) (A) (A)
                 (A) (A) (A) (A) (A) (A) (A) (A) (A) (A) (A) (A)
                 (A) (A) (A) (A) (A) (A) (A) (A) (A) (A) (A) (A)
                 (A) (A) (A) (A) (A) (A) (A) (A)
 The electronic state is 1-A.
 Alpha  occ. eigenvalues --  -10.23392 -10.23010 -10.22074 -10.21936 -10.21855
 Alpha  occ. eigenvalues --  -10.21292 -10.20923 -10.20812 -10.20747 -10.20688
 Alpha  occ. eigenvalues --   -0.85077  -0.83094  -0.78153  -0.73881  -0.70617
 Alpha  occ. eigenvalues --   -0.69863  -0.66803  -0.58529  -0.54106  -0.52215
 Alpha  occ. eigenvalues --   -0.48861  -0.46868  -0.44864  -0.43872  -0.42893
 Alpha  occ. eigenvalues --   -0.42275  -0.40751  -0.38941  -0.38797  -0.38096
 Alpha  occ. eigenvalues --   -0.37740  -0.36955  -0.36189  -0.34531  -0.33385
 Alpha  occ. eigenvalues --   -0.33274  -0.27482  -0.20605
 Alpha virt. eigenvalues --   -0.03529   0.04610   0.05569   0.06366   0.07594
 Alpha virt. eigenvalues --    0.08140   0.09376   0.10302   0.10876   0.11790
 Alpha virt. eigenvalues --    0.12386   0.13189   0.13355   0.14626   0.15185
 Alpha virt. eigenvalues --    0.15488   0.16828   0.16910   0.17007   0.17896
 Alpha virt. eigenvalues --    0.18884   0.19670   0.20000   0.20278   0.21297
 Alpha virt. eigenvalues --    0.22110   0.23346   0.23778   0.24857   0.25480
 Alpha virt. eigenvalues --    0.26031   0.26473   0.27878   0.30317   0.30649
 Alpha virt. eigenvalues --    0.31398   0.31918   0.31989   0.32397   0.34737
 Alpha virt. eigenvalues --    0.35503   0.36790   0.37153   0.38407   0.38963
 Alpha virt. eigenvalues --    0.39333   0.40121   0.40781   0.41330   0.43087
 Alpha virt. eigenvalues --    0.43697   0.44141   0.44410   0.45227   0.45771
 Alpha virt. eigenvalues --    0.46667   0.47777   0.48054   0.48676   0.49016
 Alpha virt. eigenvalues --    0.49917   0.50236   0.50282   0.50656   0.51866
 Alpha virt. eigenvalues --    0.52624   0.53279   0.54745   0.56186   0.58423
 Alpha virt. eigenvalues --    0.59606   0.60242   0.61563   0.61609   0.61706
 Alpha virt. eigenvalues --    0.64547   0.65176   0.65491   0.66034   0.67867
 Alpha virt. eigenvalues --    0.68285   0.68929   0.69784   0.71039   0.72475
 Alpha virt. eigenvalues --    0.74242   0.74845   0.76554   0.76573   0.80343
 Alpha virt. eigenvalues --    0.80818   0.84346   0.84925   0.86703   0.89418
 Alpha virt. eigenvalues --    0.89624   0.93410   0.94548   0.94742   0.96919
 Alpha virt. eigenvalues --    0.96930   0.99352   0.99533   0.99972   1.00571
 Alpha virt. eigenvalues --    1.02152   1.05294   1.05677   1.07697   1.07734
 Alpha virt. eigenvalues --    1.09906   1.11401   1.12924   1.14061   1.16263
 Alpha virt. eigenvalues --    1.16358   1.18680   1.20255   1.22650   1.23249
 Alpha virt. eigenvalues --    1.24188   1.25519   1.26780   1.28616   1.32965
 Alpha virt. eigenvalues --    1.34740   1.35275   1.36252   1.36848   1.42106
 Alpha virt. eigenvalues --    1.44324   1.45639   1.47830   1.49459   1.51019
 Alpha virt. eigenvalues --    1.51737   1.53144   1.53336   1.54245   1.54688
 Alpha virt. eigenvalues --    1.55188   1.55440   1.56079   1.57180   1.59035
 Alpha virt. eigenvalues --    1.59043   1.59521   1.60136   1.60527   1.60742
 Alpha virt. eigenvalues --    1.61073   1.61898   1.64261   1.64379   1.67316
 Alpha virt. eigenvalues --    1.67817   1.69207   1.72135   1.75725   1.76098
 Alpha virt. eigenvalues --    1.76727   1.78165   1.80495   1.82650   1.83822
 Alpha virt. eigenvalues --    1.87645   1.91004   1.92553   1.93019   1.94238
 Alpha virt. eigenvalues --    1.95571   1.98949   1.99105   2.00517   2.02306
 Alpha virt. eigenvalues --    2.02899   2.02907   2.04550   2.07856   2.08753
 Alpha virt. eigenvalues --    2.09803   2.12357   2.14496   2.17081   2.19046
 Alpha virt. eigenvalues --    2.20202   2.20509   2.23627   2.23866   2.26598
 Alpha virt. eigenvalues --    2.28781   2.29378   2.31465   2.33881   2.35314
 Alpha virt. eigenvalues --    2.35975   2.37414   2.37421   2.38052   2.39050
 Alpha virt. eigenvalues --    2.39334   2.41470   2.42815   2.45380   2.45755
 Alpha virt. eigenvalues --    2.48548   2.50464   2.50639   2.53034   2.53643
 Alpha virt. eigenvalues --    2.54492   2.55202   2.56659   2.57929   2.58835
 Alpha virt. eigenvalues --    2.59653   2.60294   2.61101   2.61693   2.62863
 Alpha virt. eigenvalues --    2.65090   2.65343   2.71253   2.72014   2.72724
 Alpha virt. eigenvalues --    2.74097   2.75653   2.76795   2.77819   2.79935
 Alpha virt. eigenvalues --    2.80748   2.81787   2.83765   2.85879   2.88011
 Alpha virt. eigenvalues --    2.89535   2.89614   2.89886   2.92089   2.92542
 Alpha virt. eigenvalues --    2.95938   2.96827   2.96919   2.98548   3.01298
 Alpha virt. eigenvalues --    3.01318   3.02461   3.03648   3.05185   3.05953
 Alpha virt. eigenvalues --    3.06419   3.07970   3.11033   3.12263   3.12338
 Alpha virt. eigenvalues --    3.12995   3.14543   3.14572   3.15606   3.16997
 Alpha virt. eigenvalues --    3.18558   3.18585   3.19121   3.20357   3.22785
 Alpha virt. eigenvalues --    3.23550   3.25239   3.25741   3.27414   3.28327
 Alpha virt. eigenvalues --    3.30388   3.31130   3.31152   3.33012   3.33613
 Alpha virt. eigenvalues --    3.34450   3.34551   3.35529   3.36185   3.36707
 Alpha virt. eigenvalues --    3.36820   3.38082   3.39547   3.41452   3.45376
 Alpha virt. eigenvalues --    3.45511   3.46950   3.47994   3.51038   3.52179
 Alpha virt. eigenvalues --    3.55809   3.56764   3.57167   3.58635   3.60912
 Alpha virt. eigenvalues --    3.61687   3.66066   3.67962   3.68136   3.69557
 Alpha virt. eigenvalues --    3.70153   3.73785   3.75891   3.78477   3.79722
 Alpha virt. eigenvalues --    3.83370   3.83806   3.83913   3.88771   3.89631
 Alpha virt. eigenvalues --    3.92164   3.94459   3.98073   4.00401   4.00453
 Alpha virt. eigenvalues --    4.00732   4.04133   4.05492   4.07436   4.10018
 Alpha virt. eigenvalues --    4.14313   4.21169   4.25441   4.25837   4.26692
 Alpha virt. eigenvalues --    4.30595   4.32351   4.35312   4.38782   4.39050
 Alpha virt. eigenvalues --    4.40688   4.40993   4.42055   4.43668   4.47097
 Alpha virt. eigenvalues --    4.49574   4.49935   4.53331   4.56629   4.58220
 Alpha virt. eigenvalues --    4.64571   4.64832   4.67823   4.71492   4.73648
 Alpha virt. eigenvalues --    4.78174   4.89907   4.90567   4.94684   4.97376
 Alpha virt. eigenvalues --    5.05169   5.09164   5.12544   5.19525   5.27547
 Alpha virt. eigenvalues --    5.30684   5.50760   5.56819  22.32098  22.40126
 Alpha virt. eigenvalues --   22.46685  22.51471  22.56275  22.58510  22.74456
 Alpha virt. eigenvalues --   22.87463  23.10899  23.18932
          Condensed to atoms (all electrons):
               1          2          3          4          5          6
     1  C    4.967245   0.334479  -0.056452   0.014208  -0.001402   0.000067
     2  C    0.334479   4.944006   0.650891  -0.050995  -0.004580  -0.001628
     3  C   -0.056452   0.650891   5.105767   0.342567  -0.041110   0.005109
     4  C    0.014208  -0.050995   0.342567   4.966985   0.552067  -0.026032
     5  C   -0.001402  -0.004580  -0.041110   0.552067   5.135474   0.330223
     6  C    0.000067  -0.001628   0.005109  -0.026032   0.330223   4.989146
     7  C   -0.000000   0.000049  -0.001462  -0.000130  -0.104472   0.642573
     8  C    0.000000  -0.000001   0.000075  -0.001391   0.013618  -0.006042
     9  C   -0.058367   0.330669  -0.058781  -0.010604   0.006492  -0.000240
    10  C   -0.000008   0.000005  -0.000978   0.016830  -0.086237   0.317230
    11  H    0.400459  -0.033089  -0.005121  -0.000559   0.000058  -0.000002
    12  H    0.400432  -0.033083  -0.005128  -0.000560   0.000057  -0.000002
    13  H    0.413233  -0.055330   0.007196   0.001272  -0.000055   0.000011
    14  H   -0.013944  -0.043283   0.421015  -0.057804   0.011999  -0.000072
    15  H    0.000054   0.001680  -0.054462   0.402008  -0.014666  -0.018280
    16  H   -0.000132   0.002153  -0.001880  -0.058398   0.436823  -0.065875
    17  H   -0.000000   0.000025  -0.000064   0.000940  -0.003914  -0.061282
    18  H    0.000000   0.000000   0.000006  -0.000109   0.002340   0.015563
    19  H   -0.000000  -0.000000  -0.000003   0.000065  -0.000911  -0.004624
    20  H   -0.000000  -0.000000  -0.000003   0.000065  -0.000912  -0.004558
    21  H    0.006873  -0.036307  -0.012890   0.001551   0.002373  -0.000152
    22  H   -0.000873  -0.036228  -0.000743  -0.000108  -0.000193   0.000004
    23  H   -0.000879  -0.036263  -0.000710  -0.000111  -0.000193   0.000004
    24  H    0.000002  -0.000122   0.000377   0.005300  -0.009465  -0.028365
    25  H   -0.000000   0.000005  -0.000030  -0.001294   0.013014  -0.044040
    26  H    0.000002  -0.000122   0.000379   0.005311  -0.009492  -0.028352
               7          8          9         10         11         12
     1  C   -0.000000   0.000000  -0.058367  -0.000008   0.400459   0.400432
     2  C    0.000049  -0.000001   0.330669   0.000005  -0.033089  -0.033083
     3  C   -0.001462   0.000075  -0.058781  -0.000978  -0.005121  -0.005128
     4  C   -0.000130  -0.001391  -0.010604   0.016830  -0.000559  -0.000560
     5  C   -0.104472   0.013618   0.006492  -0.086237   0.000058   0.000057
     6  C    0.642573  -0.006042  -0.000240   0.317230  -0.000002  -0.000002
     7  C    5.083594   0.280499   0.000020  -0.027459  -0.000000  -0.000000
     8  C    0.280499   4.929352   0.000001  -0.020352  -0.000000  -0.000000
     9  C    0.000020   0.000001   4.957197  -0.000131  -0.000213  -0.000186
    10  C   -0.027459  -0.020352  -0.000131   4.976666   0.000000   0.000000
    11  H   -0.000000  -0.000000  -0.000213   0.000000   0.544214  -0.034168
    12  H   -0.000000  -0.000000  -0.000186   0.000000  -0.034168   0.544235
    13  H   -0.000000   0.000000   0.007093   0.000000  -0.019705  -0.019706
    14  H    0.000042   0.000003   0.008078   0.000279   0.000313   0.000314
    15  H    0.001261  -0.000013   0.000460   0.007434  -0.000013  -0.000013
    16  H    0.004344   0.000541   0.000111   0.006412   0.000002   0.000002
    17  H    0.420265  -0.037240   0.000000   0.008007   0.000000   0.000000
    18  H   -0.067782   0.426356   0.000000  -0.004232  -0.000000  -0.000000
    19  H   -0.030207   0.402411  -0.000000   0.000854   0.000000  -0.000000
    20  H   -0.030277   0.402470  -0.000000   0.000853  -0.000000   0.000000
    21  H    0.000010   0.000000   0.417325  -0.000026   0.000014   0.000014
    22  H   -0.000001  -0.000000   0.401574   0.000000  -0.001543   0.004721
    23  H   -0.000001  -0.000000   0.401600   0.000000   0.004724  -0.001547
    24  H   -0.004611   0.000999   0.000037   0.405817   0.000000  -0.000000
    25  H   -0.005331  -0.000822   0.000001   0.410560   0.000000   0.000000
    26  H   -0.004619   0.000999   0.000037   0.405816  -0.000000   0.000000
              13         14         15         16         17         18
     1  C    0.413233  -0.013944   0.000054  -0.000132  -0.000000   0.000000
     2  C   -0.055330  -0.043283   0.001680   0.002153   0.000025   0.000000
     3  C    0.007196   0.421015  -0.054462  -0.001880  -0.000064   0.000006
     4  C    0.001272  -0.057804   0.402008  -0.058398   0.000940  -0.000109
     5  C   -0.000055   0.011999  -0.014666   0.436823  -0.003914   0.002340
     6  C    0.000011  -0.000072  -0.018280  -0.065875  -0.061282   0.015563
     7  C   -0.000000   0.000042   0.001261   0.004344   0.420265  -0.067782
     8  C    0.000000   0.000003  -0.000013   0.000541  -0.037240   0.426356
     9  C    0.007093   0.008078   0.000460   0.000111   0.000000   0.000000
    10  C    0.000000   0.000279   0.007434   0.006412   0.008007  -0.004232
    11  H   -0.019705   0.000313  -0.000013   0.000002   0.000000  -0.000000
    12  H   -0.019706   0.000314  -0.000013   0.000002   0.000000  -0.000000
    13  H    0.516529   0.004533   0.000036   0.000019   0.000000   0.000000
    14  H    0.004533   0.520705   0.004407   0.006478   0.000028  -0.000000
    15  H    0.000036   0.004407   0.506108   0.006066   0.000064  -0.000008
    16  H    0.000019   0.006478   0.006066   0.517770   0.005968   0.000053
    17  H    0.000000   0.000028   0.000064   0.005968   0.521967   0.004387
    18  H    0.000000  -0.000000  -0.000008   0.000053   0.004387   0.518001
    19  H   -0.000000   0.000000   0.000001  -0.000049  -0.001467  -0.020672
    20  H   -0.000000   0.000000   0.000001  -0.000049  -0.001493  -0.020676
    21  H   -0.000328  -0.000048   0.004319   0.000009  -0.000000  -0.000000
    22  H   -0.000037  -0.000252  -0.000229  -0.000001   0.000000  -0.000000
    23  H   -0.000036  -0.000252  -0.000228  -0.000001   0.000000  -0.000000
    24  H   -0.000000  -0.000014  -0.001477  -0.000130  -0.000320  -0.000265
    25  H    0.000000   0.000002   0.000474  -0.000133   0.000197   0.007178
    26  H   -0.000000  -0.000014  -0.001475  -0.000130  -0.000320  -0.000264
              19         20         21         22         23         24
     1  C   -0.000000  -0.000000   0.006873  -0.000873  -0.000879   0.000002
     2  C   -0.000000  -0.000000  -0.036307  -0.036228  -0.036263  -0.000122
     3  C   -0.000003  -0.000003  -0.012890  -0.000743  -0.000710   0.000377
     4  C    0.000065   0.000065   0.001551  -0.000108  -0.000111   0.005300
     5  C   -0.000911  -0.000912   0.002373  -0.000193  -0.000193  -0.009465
     6  C   -0.004624  -0.004558  -0.000152   0.000004   0.000004  -0.028365
     7  C   -0.030207  -0.030277   0.000010  -0.000001  -0.000001  -0.004611
     8  C    0.402411   0.402470   0.000000  -0.000000  -0.000000   0.000999
     9  C   -0.000000  -0.000000   0.417325   0.401574   0.401600   0.000037
    10  C    0.000854   0.000853  -0.000026   0.000000   0.000000   0.405817
    11  H    0.000000  -0.000000   0.000014  -0.001543   0.004724   0.000000
    12  H   -0.000000   0.000000   0.000014   0.004721  -0.001547  -0.000000
    13  H   -0.000000  -0.000000  -0.000328  -0.000037  -0.000036  -0.000000
    14  H    0.000000   0.000000  -0.000048  -0.000252  -0.000252  -0.000014
    15  H    0.000001   0.000001   0.004319  -0.000229  -0.000228  -0.001477
    16  H   -0.000049  -0.000049   0.000009  -0.000001  -0.000001  -0.000130
    17  H   -0.001467  -0.001493  -0.000000   0.000000   0.000000  -0.000320
    18  H   -0.020672  -0.020676  -0.000000  -0.000000  -0.000000  -0.000265
    19  H    0.535158  -0.030182  -0.000000  -0.000000   0.000000   0.000316
    20  H   -0.030182   0.535147  -0.000000   0.000000  -0.000000  -0.000185
    21  H   -0.000000  -0.000000   0.513441  -0.019837  -0.019840   0.000081
    22  H   -0.000000   0.000000  -0.019837   0.537725  -0.031090  -0.000006
    23  H    0.000000  -0.000000  -0.019840  -0.031090   0.537729   0.000010
    24  H    0.000316  -0.000185   0.000081  -0.000006   0.000010   0.534610
    25  H   -0.000191  -0.000189  -0.000004  -0.000000  -0.000000  -0.019302
    26  H   -0.000185   0.000315   0.000081   0.000010  -0.000006  -0.033280
              25         26
     1  C   -0.000000   0.000002
     2  C    0.000005  -0.000122
     3  C   -0.000030   0.000379
     4  C   -0.001294   0.005311
     5  C    0.013014  -0.009492
     6  C   -0.044040  -0.028352
     7  C   -0.005331  -0.004619
     8  C   -0.000822   0.000999
     9  C    0.000001   0.000037
    10  C    0.410560   0.405816
    11  H    0.000000  -0.000000
    12  H    0.000000   0.000000
    13  H    0.000000  -0.000000
    14  H    0.000002  -0.000014
    15  H    0.000474  -0.001475
    16  H   -0.000133  -0.000130
    17  H    0.000197  -0.000320
    18  H    0.007178  -0.000264
    19  H   -0.000191  -0.000185
    20  H   -0.000189   0.000315
    21  H   -0.000004   0.000081
    22  H   -0.000000   0.000010
    23  H   -0.000000  -0.000006
    24  H   -0.019302  -0.033280
    25  H    0.511820  -0.019307
    26  H   -0.019307   0.534626
 Mulliken charges:
               1
     1  C   -0.404999
     2  C    0.067070
     3  C   -0.293565
     4  C   -0.101074
     5  C   -0.226938
     6  C   -0.010381
     7  C   -0.156305
     8  C   -0.391462
     9  C   -0.402172
    10  C   -0.417341
    11  H    0.144628
    12  H    0.144617
    13  H    0.145273
    14  H    0.137487
    15  H    0.156492
    16  H    0.140027
    17  H    0.144252
    18  H    0.140123
    19  H    0.149687
    20  H    0.149673
    21  H    0.143340
    22  H    0.147106
    23  H    0.147090
    24  H    0.149991
    25  H    0.147390
    26  H    0.149990
 Sum of Mulliken charges =  -0.00000
 Mulliken charges with hydrogens summed into heavy atoms:
               1
     1  C    0.029519
     2  C    0.067070
     3  C   -0.156078
     4  C    0.055418
     5  C   -0.086911
     6  C   -0.010381
     7  C   -0.012053
     8  C    0.048021
     9  C    0.035363
    10  C    0.030031
 Electronic spatial extent (au):  <R**2>=           2878.1533
 Charge=             -0.0000 electrons
 Dipole moment (field-independent basis, Debye):
    X=              0.1498    Y=              0.5998    Z=              0.0002  Tot=              0.6182
 Quadrupole moment (field-independent basis, Debye-Ang):
   XX=            -51.4685   YY=            -58.8602   ZZ=            -67.4797
   XY=              1.0611   XZ=              0.0013   YZ=              0.0002
 Traceless Quadrupole moment (field-independent basis, Debye-Ang):
   XX=              7.8009   YY=              0.4093   ZZ=             -8.2102
   XY=              1.0611   XZ=              0.0013   YZ=              0.0002
 Octapole moment (field-independent basis, Debye-Ang**2):
  XXX=             -1.1973  YYY=             -3.5136  ZZZ=              0.0013  XYY=             -2.2020
  XXY=              0.6258  XXZ=              0.0041  XZZ=              2.4935  YZZ=              3.2236
  YYZ=              0.0014  XYZ=              0.0041
 Hexadecapole moment (field-independent basis, Debye-Ang**3):
 XXXX=          -3191.5853 YYYY=           -440.7414 ZZZZ=           -104.6550 XXXY=             25.7316
 XXXZ=             -0.0054 YYYX=             -1.4253 YYYZ=              0.0011 ZZZX=              0.0240
 ZZZY=              0.0000 XXYY=           -627.2578 XXZZ=           -589.0986 YYZZ=            -93.7221
 XXYZ=             -0.0126 YYXZ=             -0.0167 ZZXY=              5.9024
 N-N= 4.785987318692D+02 E-N=-1.861591587835D+03  KE= 3.880102433718D+02
 Unable to Open any file for archive entry.
 1\1\GINC-CN05\SP\RPBE1PBE TD-FC\def2TZVP\C10H16\2100011873\04-Nov-2023
 \0\\# td=(nstates=50) PBE1PBE/def2TZVP scrf(smd, solvent=ethanol)\\B-2
 \\0,1\C,0,4.186043,-0.985243,-0.000113\C,0,2.965678,-0.099955,0.000017
 \C,0,1.724259,-0.63647,-0.000213\C,0,0.452578,0.059668,-0.000179\C,0,-
 0.741079,-0.579413,-0.000205\C,0,-2.064372,0.040415,-0.000137\C,0,-3.1
 52878,-0.763225,0.000253\C,0,-4.604173,-0.385851,0.000427\C,0,3.260391
 ,1.378273,0.000567\C,0,-2.133175,1.550261,-0.000541\H,0,4.817179,-0.79
 1217,-0.879673\H,0,4.817098,-0.791647,0.879598\H,0,3.922096,-2.047445,
 -0.000374\H,0,1.652379,-1.72528,-0.000493\H,0,0.469127,1.146468,-0.000
 113\H,0,-0.735417,-1.670538,-0.000304\H,0,-2.968126,-1.838635,0.00044\
 H,0,-4.773466,0.693748,0.001475\H,0,-5.114894,-0.80271,-0.879231\H,0,-
 5.115042,-0.80447,0.879137\H,0,2.363003,2.000757,0.000075\H,0,3.859006
 ,1.653716,0.880554\H,0,3.86032,1.65418,-0.878355\H,0,-1.627265,1.96404
 4,-0.882102\H,0,-3.158688,1.923675,-0.000452\H,0,-1.626926,1.964596,0.
 880567\\Version=ES64L-G16RevC.02\State=1-A\HF=-390.324964\RMSD=8.786e-
 09\PG=C01 [X(C10H16)]\\@
 The archive entry for this job was punched.


 TERRY FORSTER, PORTLY ATLANTA BRAVES RELIEVER,
 ANNOUNCING THAT HE WAS GOING TO A FAT FARM:
 "A WAIST IS A TERRIBLE THING TO MIND."
 Job cpu time:       0 days  3 hours  1 minutes  4.6 seconds.
 Elapsed time:       0 days  0 hours  6 minutes  5.3 seconds.
 File lengths (MBytes):  RWF=   3120 Int=      0 D2E=      0 Chk=    256 Scr=     32
 Normal termination of Gaussian 16 at Sat Nov  4 18:49:54 2023.
