 Entering Gaussian System, Link 0=g16
 Initial command:
 /nfs-share/home/2100011873/Gaussian16_AVX2/g16/l1.exe "/nfs-share/home/2100011873/GaussTmp/Gau-175393.inp" -scrdir="/nfs-share/home/2100011873/GaussTmp/"
 Entering Link 1 = /nfs-share/home/2100011873/Gaussian16_AVX2/g16/l1.exe PID=    175394.
  
 Copyright (c) 1988-2021, Gaussian, Inc.  All Rights Reserved.
  
 This is part of the Gaussian(R) 16 program.  It is based on
 the Gaussian(R) 09 system (copyright 2009, Gaussian, Inc.),
 the Gaussian(R) 03 system (copyright 2003, Gaussian, Inc.),
 the Gaussian(R) 98 system (copyright 1998, Gaussian, Inc.),
 the Gaussian(R) 94 system (copyright 1995, Gaussian, Inc.),
 the Gaussian 92(TM) system (copyright 1992, Gaussian, Inc.),
 the Gaussian 90(TM) system (copyright 1990, Gaussian, Inc.),
 the Gaussian 88(TM) system (copyright 1988, Gaussian, Inc.),
 the Gaussian 86(TM) system (copyright 1986, Carnegie Mellon
 University), and the Gaussian 82(TM) system (copyright 1983,
 Carnegie Mellon University). Gaussian is a federally registered
 trademark of Gaussian, Inc.
  
 This software contains proprietary and confidential information,
 including trade secrets, belonging to Gaussian, Inc.
  
 This software is provided under written license and may be
 used, copied, transmitted, or stored only in accord with that
 written license.
  
 The following legend is applicable only to US Government
 contracts under FAR:
  
                    RESTRICTED RIGHTS LEGEND
  
 Use, reproduction and disclosure by the US Government is
 subject to restrictions as set forth in subparagraphs (a)
 and (c) of the Commercial Computer Software - Restricted
 Rights clause in FAR 52.227-19.
  
 Gaussian, Inc.
 340 Quinnipiac St., Bldg. 40, Wallingford CT 06492
  
  
 ---------------------------------------------------------------
 Warning -- This program may not be used in any manner that
 competes with the business of Gaussian, Inc. or will provide
 assistance to any competitor of Gaussian, Inc.  The licensee
 of this program is prohibited from giving any competitor of
 Gaussian, Inc. access to this program.  By using this program,
 the user acknowledges that Gaussian, Inc. is engaged in the
 business of creating and licensing software in the field of
 computational chemistry and represents and warrants to the
 licensee that it is not a competitor of Gaussian, Inc. and that
 it will not use this program in any manner prohibited above.
 ---------------------------------------------------------------
  

 Cite this work as:
 Gaussian 16, Revision C.02,
 M. J. Frisch, G. W. Trucks, H. B. Schlegel, G. E. Scuseria, 
 M. A. Robb, J. R. Cheeseman, G. Scalmani, V. Barone, 
 G. A. Petersson, H. Nakatsuji, X. Li, M. Caricato, A. V. Marenich, 
 J. Bloino, B. G. Janesko, R. Gomperts, B. Mennucci, H. P. Hratchian, 
 J. V. Ortiz, A. F. Izmaylov, J. L. Sonnenberg, D. Williams-Young, 
 F. Ding, F. Lipparini, F. Egidi, J. Goings, B. Peng, A. Petrone, 
 T. Henderson, D. Ranasinghe, V. G. Zakrzewski, J. Gao, N. Rega, 
 G. Zheng, W. Liang, M. Hada, M. Ehara, K. Toyota, R. Fukuda, 
 J. Hasegawa, M. Ishida, T. Nakajima, Y. Honda, O. Kitao, H. Nakai, 
 T. Vreven, K. Throssell, J. A. Montgomery, Jr., J. E. Peralta, 
 F. Ogliaro, M. J. Bearpark, J. J. Heyd, E. N. Brothers, K. N. Kudin, 
 V. N. Staroverov, T. A. Keith, R. Kobayashi, J. Normand, 
 K. Raghavachari, A. P. Rendell, J. C. Burant, S. S. Iyengar, 
 J. Tomasi, M. Cossi, J. M. Millam, M. Klene, C. Adamo, R. Cammi, 
 J. W. Ochterski, R. L. Martin, K. Morokuma, O. Farkas, 
 J. B. Foresman, and D. J. Fox, Gaussian, Inc., Wallingford CT, 2019.
 
 ******************************************
 Gaussian 16:  ES64L-G16RevC.02  7-Dec-2021
                 4-Nov-2023 
 ******************************************
 %nprocshared=36
 Will use up to   36 processors via shared memory.
 %mem=128GB
 --------------------------------------------------------------
 # td=(nstates=150) PBE1PBE/def2TZVP scrf(smd, solvent=ethanol)
 --------------------------------------------------------------
 1/38=1,172=1/1;
 2/12=2,17=6,18=5,40=1/2;
 3/5=44,7=101,11=9,25=1,30=1,70=32201,72=4,74=-13/1,2,3,8;
 4//1;
 5/5=2,38=5,53=4/2;
 8/6=1,10=1,108=150/1;
 9/41=150,42=1,70=2/14;
 6/7=2,8=2,9=2,10=2/1;
 99/5=1,9=1/99;
 ---
 A-2
 ---
 Symbolic Z-matrix:
 Charge =  1 Multiplicity = 1
 C                     1.18593   1.12419   0.25907 
 C                    -0.06404   0.51889   0.18474 
 C                    -1.25506   1.23243   0.20607 
 C                    -2.57691   0.77597   0.13437 
 C                     2.39263   0.43147   0.17128 
 S                    -3.82767   1.97001  -0.18708 
 C                    -5.07788   0.74479  -0.13478 
 C                    -4.5092   -0.50864   0.11385 
 N                    -3.11837  -0.45818   0.27972 
 S                     2.5052   -1.30012  -0.12511 
 C                     4.26032  -1.22576  -0.10255 
 C                     4.68878   0.08701   0.11942 
 N                     3.62751   0.98166   0.28741 
 C                     5.15932  -2.26746  -0.2795 
 C                     6.51791  -1.9736   -0.23726 
 C                     6.95394  -0.66384  -0.02533 
 C                     6.05157   0.37821   0.15346 
 C                    -6.4468    0.90418  -0.30422 
 C                    -7.25123  -0.22611  -0.22641 
 C                    -6.68975  -1.48249   0.01487 
 C                    -5.32005  -1.6405    0.18625 
 C                     3.84714   2.41567   0.55458 
 C                     3.91176   3.24964  -0.71763 
 C                    -2.36937  -1.66031   0.69242 
 C                    -1.91885  -2.52299  -0.47911 
 H                     1.22885   2.1992    0.37656 
 H                    -0.09664  -0.55695   0.07224 
 H                    -1.16519   2.31437   0.2242 
 H                     4.81396  -3.27995  -0.44835 
 H                     7.24042  -2.76872  -0.37396 
 H                     8.01554  -0.44971  -0.00207 
 H                     6.40682   1.38809   0.30607 
 H                    -6.87574   1.88074  -0.49123 
 H                    -8.32188  -0.12916  -0.35743 
 H                    -7.33033  -2.35428   0.06736 
 H                    -4.90197  -2.62169   0.36374 
 H                     3.04859   2.7543    1.21217 
 H                     4.77271   2.49485   1.12204 
 H                     4.08254   4.2955   -0.45252 
 H                     4.72891   2.92447  -1.36454 
 H                     2.9782    3.18722  -1.27998 
 H                    -1.53167  -1.32932   1.3026 
 H                    -3.02767  -2.2247    1.35177 
 H                    -1.2761   -1.97256  -1.16835 
 H                    -1.35915  -3.37917  -0.09602 
 H                    -2.77567  -2.8996   -1.0408 
 
                          Input orientation:                          
 ---------------------------------------------------------------------
 Center     Atomic      Atomic             Coordinates (Angstroms)
 Number     Number       Type             X           Y           Z
 ---------------------------------------------------------------------
      1          6           0        1.185932    1.124188    0.259065
      2          6           0       -0.064042    0.518894    0.184736
      3          6           0       -1.255062    1.232433    0.206071
      4          6           0       -2.576908    0.775971    0.134368
      5          6           0        2.392634    0.431471    0.171283
      6         16           0       -3.827667    1.970009   -0.187075
      7          6           0       -5.077877    0.744792   -0.134775
      8          6           0       -4.509195   -0.508640    0.113846
      9          7           0       -3.118372   -0.458179    0.279721
     10         16           0        2.505198   -1.300121   -0.125106
     11          6           0        4.260315   -1.225762   -0.102553
     12          6           0        4.688784    0.087010    0.119416
     13          7           0        3.627512    0.981655    0.287411
     14          6           0        5.159317   -2.267461   -0.279503
     15          6           0        6.517913   -1.973596   -0.237257
     16          6           0        6.953940   -0.663841   -0.025333
     17          6           0        6.051566    0.378213    0.153458
     18          6           0       -6.446804    0.904176   -0.304215
     19          6           0       -7.251229   -0.226106   -0.226408
     20          6           0       -6.689747   -1.482485    0.014868
     21          6           0       -5.320051   -1.640504    0.186250
     22          6           0        3.847144    2.415669    0.554580
     23          6           0        3.911762    3.249637   -0.717632
     24          6           0       -2.369369   -1.660308    0.692423
     25          6           0       -1.918854   -2.522991   -0.479110
     26          1           0        1.228852    2.199196    0.376562
     27          1           0       -0.096636   -0.556945    0.072235
     28          1           0       -1.165193    2.314370    0.224199
     29          1           0        4.813961   -3.279951   -0.448352
     30          1           0        7.240415   -2.768718   -0.373960
     31          1           0        8.015538   -0.449707   -0.002068
     32          1           0        6.406822    1.388085    0.306065
     33          1           0       -6.875736    1.880738   -0.491225
     34          1           0       -8.321880   -0.129159   -0.357431
     35          1           0       -7.330326   -2.354283    0.067360
     36          1           0       -4.901973   -2.621689    0.363736
     37          1           0        3.048585    2.754296    1.212168
     38          1           0        4.772710    2.494849    1.122044
     39          1           0        4.082538    4.295496   -0.452515
     40          1           0        4.728911    2.924468   -1.364544
     41          1           0        2.978199    3.187215   -1.279982
     42          1           0       -1.531667   -1.329317    1.302601
     43          1           0       -3.027666   -2.224702    1.351768
     44          1           0       -1.276100   -1.972556   -1.168349
     45          1           0       -1.359149   -3.379171   -0.096017
     46          1           0       -2.775672   -2.899604   -1.040801
 ---------------------------------------------------------------------
                    Distance matrix (angstroms):
                    1          2          3          4          5
     1  C    0.000000
     2  C    1.390806   0.000000
     3  C    2.443967   1.388568   0.000000
     4  C    3.780975   2.526484   1.400277   0.000000
     5  C    1.394164   2.458268   3.734761   4.981605   0.000000
     6  S    5.103982   4.050784   2.704973   1.758821   6.417762
     7  C    6.287635   5.029081   3.868835   2.515603   7.483340
     8  C    5.926355   4.562920   3.691778   2.320427   6.965799
     9  N    4.585994   3.208212   2.517045   1.355521   5.583406
    10  S    2.786633   3.163196   4.545664   5.495934   1.760377
    11  C    3.886498   4.671876   6.046268   7.128161   2.511900
    12  C    3.655846   4.772855   6.053826   7.298299   2.322423
    13  N    2.445901   3.721863   4.889687   6.209715   1.356876
    14  C    5.251774   5.938246   7.323203   8.323638   3.891269
    15  C    6.186487   7.050725   8.419875   9.508627   4.792617
    16  C    6.045481   7.120047   8.428352   9.640313   4.695091
    17  C    4.923619   6.117306   7.356580   8.637658   3.659363
    18  C    7.656654   6.413047   5.227077   3.896779   8.864830
    19  C    8.558310   7.237384   6.186145   4.794121   9.674433
    20  C    8.299440   6.923463   6.078087   4.693650   9.283175
    21  C    7.069416   5.682309   4.977780   3.656074   7.986164
    22  C    2.972760   4.362558   5.249192   6.643315   2.489891
    23  C    3.591882   4.906959   5.623025   6.996268   3.322646
    24  C    4.536671   3.212662   3.137861   2.507978   5.227217
    25  C    4.846289   3.624098   3.874700   3.419436   5.266952
    26  H    1.082261   2.128799   2.670866   4.070385   2.126354
    27  H    2.122756   1.082196   2.135822   2.816429   2.680157
    28  H    2.635439   2.106615   1.085814   2.089900   4.025698
    29  H    5.749737   6.215057   7.590976   8.450740   4.474531
    30  H    7.225801   8.029672   9.408442  10.450026   5.834336
    31  H    7.013477   8.139576   9.424274  10.663996   5.694170
    32  H    5.227767   6.530107   7.664117   9.006196   4.128799
    33  H    8.131777   6.979306   5.700745   4.482388   9.404359
    34  H    9.609861   8.300952   7.218822   5.836594  10.742190
    35  H    9.201259   7.814589   7.056388   5.691921  10.114701
    36  H    7.148786   5.770691   5.308397   4.123425   7.910127
    37  H    2.652383   3.967504   4.674364   6.059834   2.628541
    38  H    3.935533   5.308212   6.226294   7.612288   3.290325
    39  H    4.353604   5.644726   6.189189   7.555111   4.263284
    40  H    4.292996   5.582065   6.413871   7.761299   3.745930
    41  H    3.136394   4.303553   4.893876   6.218818   3.169098
    42  H    3.807098   2.611404   2.800259   2.624792   4.447515
    43  H    5.492128   4.203849   4.050497   3.269447   6.150484
    44  H    4.205822   3.083382   3.487324   3.308107   4.586237
    45  H    5.184955   4.117163   4.622660   4.336037   5.354280
    46  H    5.794382   4.532219   4.576098   3.863985   6.267104
                    6          7          8          9         10
     6  S    0.000000
     7  C    1.751262   0.000000
     8  C    2.588191   1.398679   0.000000
     9  N    2.572371   2.336366   1.401588   0.000000
    10  S    7.127606   7.853966   7.062949   5.700640   0.000000
    11  C    8.696870   9.543896   8.801443   7.428347   1.756836
    12  C    8.727517   9.792086   9.217247   7.827810   2.598456
    13  N    7.535362   8.718838   8.273881   6.897835   2.576094
    14  C    9.936326  10.672149   9.835055   8.491547   2.829122
    15  C   11.071837  11.910604  11.129532   9.768405   4.070384
    16  C   11.099837  12.114489  11.465030  10.079029   4.495121
    17  C   10.012443  11.139208  10.598007   9.208868   3.933336
    18  C    2.830124   1.388551   2.434164   3.643549   9.221136
    19  C    4.067585   2.382121   2.777472   4.170196   9.815887
    20  C    4.489098   2.753413   2.390184   3.724791   9.197818
    21  C    3.924587   2.418955   1.394219   2.500804   7.838834
    22  C    7.723431   9.106209   8.864211   7.540090   4.008726
    23  C    7.862423   9.350272   9.258970   8.010331   4.798938
    24  C    4.009907   3.715478   2.497988   1.475277   4.955753
    25  C    4.890389   4.558113   3.334527   2.505617   4.603582
    26  H    5.092995   6.492425   6.350321   5.096016   3.758450
    27  H    4.513683   5.152682   4.413020   3.030461   2.713078
    28  H    2.715971   4.231020   4.377661   3.391905   5.163170
    29  H   10.114746  10.683883   9.742560   8.450704   3.058529
    30  H   12.041300  12.811802  11.974942  10.633455   4.963969
    31  H   12.089283  13.148458  12.525408  11.137479   5.576934
    32  H   10.262874  11.511146  11.081243   9.702510   4.757629
    33  H    3.064507   2.156323   3.416980   4.492513   9.912307
    34  H    4.963212   3.367035   3.860398   5.252686  10.892692
    35  H    5.570714   3.836489   3.371548   4.623945   9.893727
    36  H    4.747759   3.407734   2.163723   2.805186   7.540006
    37  H    7.060866   8.478900   8.305005   7.015755   4.303704
    38  H    8.715259  10.083470   9.807710   8.467530   4.593342
    39  H    8.249224   9.829632   9.859937   8.659486   5.822897
    40  H    8.689790  10.121087   9.965665   8.702055   4.932368
    41  H    6.999703   8.495722   8.465410   7.272534   4.657645
    42  H    4.286759   4.352423   3.309429   2.079134   4.281995
    43  H    4.539123   3.902700   2.583069   2.068361   5.800741
    44  H    4.797626   4.785997   3.773589   2.790020   3.979791
    45  H    5.891995   5.553153   4.266940   3.430487   4.388220
    46  H    5.054569   4.404844   3.170965   2.796744   5.593249
                   11         12         13         14         15
    11  C    0.000000
    12  C    1.398652   0.000000
    13  N    2.329206   1.398181   0.000000
    14  C    1.387319   2.433942   3.636561   0.000000
    15  C    2.382047   2.778313   4.166918   1.390656   0.000000
    16  C    2.752696   2.390745   3.724324   2.420097   1.396599
    17  C    2.418028   1.393963   2.501624   2.825448   2.429227
    18  C   10.918777  11.173564  10.091970  12.031705  13.280435
    19  C   11.555531  11.949123  10.957632  12.577424  13.879593
    20  C   10.953700  11.486741  10.610942  11.878685  13.219192
    21  C    9.593687  10.157044   9.324421  10.508433  11.850219
    22  C    3.723245   2.514036   1.475132   4.934491   5.198621
    23  C    4.530895   3.362532   2.496928   5.673334   5.857042
    24  C    6.691302   7.293763   6.565561   7.615405   8.941266
    25  C    6.325087   7.129602   6.605473   7.085594   8.458095
    26  H    4.598876   4.061845   2.691454   5.985817   6.764845
    27  H    4.411450   4.828783   4.035204   5.538468   6.771628
    28  H    6.486558   6.264276   4.974952   7.826003   8.810772
    29  H    2.155410   3.416790   4.484450   1.083013   2.157447
    30  H    3.366804   3.861272   5.249360   2.142697   1.083012
    31  H    3.835891   3.371960   4.624648   3.396940   2.149519
    32  H    3.406854   2.163166   2.808932   3.906683   3.407116
    33  H   11.567759  11.718723  10.570376  12.731649  13.939520
    34  H   12.632463  13.021194  12.018224  13.649948  14.954459
    35  H   11.646690  12.264649  11.456488  12.494760  13.856819
    36  H    9.279739   9.968920   9.259699  10.088052  11.454039
    37  H    4.363215   3.316440   2.081487   5.647859   6.040698
    38  H    3.950333   2.609597   2.073125   4.979297   4.986024
    39  H    5.535194   4.290221   3.425796   6.652954   6.728960
    40  H    4.363097   3.202330   2.777869   5.321531   5.335010
    41  H    4.743894   3.807320   2.782593   5.959171   6.344353
    42  H    5.960892   6.488445   5.743547   6.939195   8.220827
    43  H    7.498506   8.149006   7.463577   8.348028   9.680193
    44  H    5.687312   6.440496   5.906946   6.503200   7.849431
    45  H    6.017939   6.974118   6.635556   6.615132   8.002731
    46  H    7.292953   8.123058   7.604544   7.996451   9.374108
                   16         17         18         19         20
    16  C    0.000000
    17  C    1.390008   0.000000
    18  C   13.495051  12.517801   0.000000
    19  C   14.213334  13.321931   1.389493   0.000000
    20  C   13.668284  12.877207   2.420121   1.397127   0.000000
    21  C   12.314605  11.549457   2.825867   2.429044   1.389392
    22  C    4.412693   3.028465  10.439708  11.435156  11.247798
    23  C    5.004941   3.685463  10.628828  11.701900  11.632778
    24  C    9.403840   8.680910   4.918876   5.170468   4.376799
    25  C    9.076829   8.505570   5.681408   5.811520   4.907962
    26  H    6.413668   5.159876   7.813849   8.840669   8.740126
    27  H    7.052061   6.219446   6.526961   7.168462   6.658005
    28  H    8.651724   7.472303   5.492111   6.610363   6.706760
    29  H    3.406242   3.908453  12.013847  12.447652  11.652500
    30  H    2.152700   3.405100  14.171626  14.713748  13.994820
    31  H    1.083229   2.137013  14.528717  15.270052  14.741517
    32  H    2.149317   1.081359  12.877201  13.763412  13.410633
    33  H   14.069537  13.030285   1.082880   2.156366   3.406170
    34  H   15.288782  14.391469   2.141617   1.082986   2.152663
    35  H   14.384243  13.658293   3.396503   2.149812   1.083111
    36  H   12.022779  11.358858   3.906966   3.406771   2.148402
    37  H    5.335435   3.972975   9.792077  10.818432  10.687327
    38  H    4.006440   2.655895  11.421119  12.401493  12.183306
    39  H    5.746517   4.425989  11.063005  12.204519  12.232973
    40  H    4.429470   3.246099  11.406248  12.439663  12.317052
    41  H    5.675499   4.403502   9.746541  10.835219  10.814431
    42  H    8.614627   7.857583   5.632843   6.022320   5.318600
    43  H   10.196330   9.520692   4.921652   4.931887   3.968504
    44  H    8.411467   7.808199   5.979841   6.295991   5.563070
    45  H    8.745597   8.312573   6.653919   6.683968   5.659062
    46  H   10.034698   9.491600   5.337463   5.276499   4.294490
                   21         22         23         24         25
    21  C    0.000000
    22  C   10.031235   0.000000
    23  C   10.486031   1.522564   0.000000
    24  C    2.993848   7.434892   8.096198   0.000000
    25  C    3.576259   7.661959   8.208301   1.523048   0.000000
    26  H    7.593922   2.633250   3.081995   5.286089   5.739275
    27  H    5.335838   4.962106   5.584014   2.601415   2.736749
    28  H    5.736315   5.024235   5.247594   4.179395   4.945979
    29  H   10.285364   5.863505   6.597120   7.451499   6.775303
    30  H   12.623471   6.265329   6.886119   9.732096   9.163168
    31  H   13.389974   5.088786   5.571190  10.478271  10.159637
    32  H   12.112236   2.769411   3.276989   9.298575   9.232004
    33  H    3.908743  10.787030  10.876362   5.852126   6.630509
    34  H    3.404516  12.465675  12.696771   6.235303   6.836957
    35  H    2.136544  12.162469  12.585892   5.048108   5.441610
    36  H    1.081210  10.097447  10.645363   2.728804   3.101472
    37  H    9.507936   1.088479   2.171305   7.008073   7.442152
    38  H   10.947177   1.088557   2.166874   8.274007   8.515835
    39  H   11.137899   2.145554   1.092370   8.854919   9.083456
    40  H   11.145652   2.172424   1.091770   8.696946   8.640115
    41  H    9.711728   2.171628   1.091638   7.482335   7.564984
    42  H    3.961683   6.596671   7.394530   1.087942   2.179281
    43  H    2.637186   8.332560   9.077801   1.089326   2.161147
    44  H    4.277702   6.962229   7.374846   2.180644   1.091404
    45  H    4.334903   7.817220   8.491761   2.143985   1.092279
    46  H    3.092709   8.640547   9.090620   2.169102   1.091545
                   26         27         28         29         30
    26  H    0.000000
    27  H    3.073410   0.000000
    28  H    2.401652   3.067468   0.000000
    29  H    6.599586   5.639125   8.215780   0.000000
    30  H    7.834688   7.676154   9.841231   2.480841   0.000000
    31  H    7.295146   8.113223   9.590471   4.296457   2.473243
    32  H    5.241588   6.792112   7.628900   4.989680   4.293754
    33  H    8.157133   7.226063   5.771496  12.778246  14.862601
    34  H    9.857812   8.247560   7.584675  13.508741  15.784567
    35  H    9.699964   7.453638   7.734972  12.190428  14.583313
    36  H    7.799238   5.238263   6.192550   9.772009  12.165665
    37  H    2.077932   4.707035   4.350350   6.502770   7.112730
    38  H    3.633467   5.841753   6.008110   5.984660   6.002727
    39  H    3.636670   6.425499   5.649910   7.610676   7.738312
    40  H    3.975913   6.121313   6.134883   6.272277   6.300895
    41  H    2.603946   5.030093   4.493564   6.773911   7.379736
    42  H    4.574759   2.041978   3.817553   6.865698   9.046113
    43  H    6.216096   3.606876   5.034222   8.114499  10.426293
    44  H    5.105394   2.221292   4.508794   6.270289   8.590457
    45  H    6.167597   3.096322   5.705836   6.183953   8.625683
    46  H    6.636482   3.728825   5.601731   7.622217  10.039114
                   31         32         33         34         35
    31  H    0.000000
    32  H    2.461786   0.000000
    33  H   15.080461  13.315582   0.000000
    34  H   16.344426  14.821502   2.479701   0.000000
    35  H   15.463757  14.239787   4.295820   2.472813   0.000000
    36  H   13.103946  11.998769   4.989844   4.292849   2.460944
    37  H    6.034122   3.737019  10.107265  11.834924  11.624541
    38  H    4.522164   2.135666  11.775656  13.436612  13.080899
    39  H    6.179672   3.798786  11.221244  13.170277  13.219050
    40  H    4.903398   2.822551  11.684173  13.441059  13.241630
    41  H    6.343110   4.184241   9.971412  11.812757  11.780884
    42  H    9.676001   8.449672   6.487013   7.092466   6.016712
    43  H   11.266580  10.156539   5.921056   5.944860   4.492146
    44  H    9.487561   8.514405   6.830981   7.327941   6.190827
    45  H    9.822186   9.121332   7.632533   7.688338   6.060697
    46  H   11.114458  10.223332   6.321727   6.237210   4.719139
                   36         37         38         39         40
    36  H    0.000000
    37  H    9.634958   0.000000
    38  H   10.970574   1.745864   0.000000
    39  H   11.368164   2.493096   2.489559   0.000000
    40  H   11.247255   3.080893   2.523809   1.768986   0.000000
    41  H    9.926847   2.530451   3.077234   1.769902   1.772337
    42  H    3.729699   6.137001   7.375772   8.138689   8.025160
    43  H    2.155651   7.856891   9.119912   9.814450   9.698288
    44  H    3.989438   6.834683   7.860770   8.277433   7.751096
    45  H    3.651952   7.665434   8.578314   9.414859   8.854914
    46  H    2.563419   8.424038   9.526599   9.957439   9.504914
                   41         42         43         44         45
    41  H    0.000000
    42  H    6.885324   0.000000
    43  H    8.502080   1.744175   0.000000
    44  H    6.688405   2.566060   3.079375   0.000000
    45  H    7.958127   2.487528   2.492555   1.770694   0.000000
    46  H    8.379356   3.082999   2.498676   1.767598   1.768937
                   46
    46  H    0.000000
 Stoichiometry    C21H21N2S2(1+)
 Framework group  C1[X(C21H21N2S2)]
 Deg. of freedom   132
 Full point group                 C1      NOp   1
 Largest Abelian subgroup         C1      NOp   1
 Largest concise Abelian subgroup C1      NOp   1
                         Standard orientation:                         
 ---------------------------------------------------------------------
 Center     Atomic      Atomic             Coordinates (Angstroms)
 Number     Number       Type             X           Y           Z
 ---------------------------------------------------------------------
      1          6           0        1.185932    1.124188    0.259065
      2          6           0       -0.064042    0.518894    0.184736
      3          6           0       -1.255062    1.232433    0.206071
      4          6           0       -2.576908    0.775971    0.134368
      5          6           0        2.392634    0.431471    0.171283
      6         16           0       -3.827667    1.970009   -0.187075
      7          6           0       -5.077877    0.744792   -0.134775
      8          6           0       -4.509195   -0.508640    0.113846
      9          7           0       -3.118372   -0.458179    0.279721
     10         16           0        2.505198   -1.300121   -0.125106
     11          6           0        4.260315   -1.225762   -0.102553
     12          6           0        4.688784    0.087010    0.119416
     13          7           0        3.627512    0.981655    0.287411
     14          6           0        5.159317   -2.267461   -0.279503
     15          6           0        6.517913   -1.973596   -0.237257
     16          6           0        6.953940   -0.663841   -0.025333
     17          6           0        6.051566    0.378213    0.153458
     18          6           0       -6.446804    0.904176   -0.304215
     19          6           0       -7.251229   -0.226106   -0.226408
     20          6           0       -6.689747   -1.482485    0.014868
     21          6           0       -5.320051   -1.640504    0.186250
     22          6           0        3.847144    2.415669    0.554580
     23          6           0        3.911762    3.249637   -0.717632
     24          6           0       -2.369369   -1.660308    0.692423
     25          6           0       -1.918854   -2.522991   -0.479110
     26          1           0        1.228852    2.199196    0.376562
     27          1           0       -0.096636   -0.556945    0.072235
     28          1           0       -1.165193    2.314370    0.224199
     29          1           0        4.813961   -3.279951   -0.448352
     30          1           0        7.240415   -2.768718   -0.373960
     31          1           0        8.015538   -0.449707   -0.002068
     32          1           0        6.406822    1.388085    0.306065
     33          1           0       -6.875736    1.880738   -0.491225
     34          1           0       -8.321880   -0.129159   -0.357431
     35          1           0       -7.330326   -2.354283    0.067360
     36          1           0       -4.901973   -2.621689    0.363736
     37          1           0        3.048585    2.754296    1.212168
     38          1           0        4.772710    2.494849    1.122044
     39          1           0        4.082538    4.295496   -0.452515
     40          1           0        4.728911    2.924468   -1.364544
     41          1           0        2.978199    3.187215   -1.279982
     42          1           0       -1.531667   -1.329317    1.302601
     43          1           0       -3.027666   -2.224702    1.351768
     44          1           0       -1.276100   -1.972556   -1.168349
     45          1           0       -1.359149   -3.379171   -0.096017
     46          1           0       -2.775672   -2.899604   -1.040801
 ---------------------------------------------------------------------
 Rotational constants (GHZ):           0.5429629           0.0715335           0.0638922
 Standard basis: def2TZVP (5D, 7F)
 There are  1038 symmetry adapted cartesian basis functions of A   symmetry.
 There are   913 symmetry adapted basis functions of A   symmetry.
   913 basis functions,  1479 primitive gaussians,  1038 cartesian basis functions
    96 alpha electrons       96 beta electrons
       nuclear repulsion energy      2285.6548009337 Hartrees.
 NAtoms=   46 NActive=   46 NUniq=   46 SFac= 1.00D+00 NAtFMM=   60 NAOKFM=F Big=F
 Integral buffers will be    131072 words long.
 Regular integral format.
 Two-electron integral symmetry is turned on.
 ------------------------------------------------------------------------------
 Polarizable Continuum Model (PCM)
 =================================
 Model                : PCM.
 Atomic radii         : SMD-Coulomb.
 Polarization charges : Total charges.
 Charge compensation  : None.
 Solution method      : On-the-fly selection.
 Cavity type          : VdW (van der Waals Surface) (Alpha=1.000).
 Cavity algorithm     : GePol (No added spheres)
                        Default sphere list used, NSphG=   46.
                        Lebedev-Laikov grids with approx.  5.0 points / Ang**2.
                        Smoothing algorithm: York/Karplus (Gamma=1.0000).
                        Polarization charges: spherical gaussians, with
                                              point-specific exponents (IZeta= 3).
                        Self-potential: point-specific (ISelfS= 7).
                        Self-field    : sphere-specific E.n sum rule (ISelfD= 2).
 Solvent              : Ethanol, Eps=  24.852000 Eps(inf)=   1.852593
 ------------------------------------------------------------------------------
 ------------------------------------------------------------------------------
 Atomic radii for non-electrostatic terms: SMD-CDS.
 ------------------------------------------------------------------------------
 Nuclear repulsion after PCM non-electrostatic terms =     2285.6487450168 Hartrees.
 One-electron integrals computed using PRISM.
   1 Symmetry operations used in ECPInt.
 ECPInt:  NShTT=   66066 NPrTT=  205761 LenC2=   50229 LenP2D=  107572.
 LDataN:  DoStor=T MaxTD1= 6 Len=  172
 NBasis=   913 RedAO= T EigKep=  6.82D-06  NBF=   913
 NBsUse=   913 1.00D-06 EigRej= -1.00D+00 NBFU=   913
 ExpMin= 9.52D-02 ExpMax= 6.07D+04 ExpMxC= 2.07D+03 IAcc=3 IRadAn=         5 AccDes= 0.00D+00
 Harris functional with IExCor= 1009 and IRadAn=       5 diagonalized for initial guess.
 HarFok:  IExCor= 1009 AccDes= 0.00D+00 IRadAn=         5 IDoV= 1 UseB2=F ITyADJ=14
 ICtDFT=  3500011 ScaDFX=  1.000000  1.000000  1.000000  1.000000
 FoFCou: FMM=F IPFlag=           0 FMFlag=      100000 FMFlg1=           0
         NFxFlg=           0 DoJE=T BraDBF=F KetDBF=T FulRan=T
         wScrn=  0.000000 ICntrl=       500 IOpCl=  0 I1Cent=   200000004 NGrid=           0
         NMat0=    1 NMatS0=      1 NMatT0=    0 NMatD0=    1 NMtDS0=    0 NMtDT0=    0
 Petite list used in FoFCou.
 Requested convergence on RMS density matrix=1.00D-08 within 128 cycles.
 Requested convergence on MAX density matrix=1.00D-06.
 Requested convergence on             energy=1.00D-06.
 No special actions if energy rises.
 Inv3:  Mode=1 IEnd=    37446267.
 Iteration    1 A*A^-1 deviation from unit magnitude is 3.33D-15 for   2473.
 Iteration    1 A*A^-1 deviation from orthogonality  is 2.21D-15 for   2440   2261.
 Iteration    1 A^-1*A deviation from unit magnitude is 3.33D-15 for   2473.
 Iteration    1 A^-1*A deviation from orthogonality  is 1.78D-15 for   2427     48.
 Error on total polarization charges =  0.05943
 SCF Done:  E(RPBE1PBE) =  -1717.64084562     A.U. after   13 cycles
            NFock= 13  Conv=0.38D-08     -V/T= 2.0036
 SMD-CDS (non-electrostatic) energy       (kcal/mol) =      -3.80
 (included in total energy above)
 DoSCS=F DFT=T ScalE2(SS,OS)=  1.000000  1.000000
 ExpMin= 9.52D-02 ExpMax= 6.07D+04 ExpMxC= 2.07D+03 IAcc=3 IRadAn=         5 AccDes= 0.00D+00
 HarFok:  IExCor=  205 AccDes= 0.00D+00 IRadAn=         5 IDoV=-2 UseB2=F ITyADJ=14
 ICtDFT= 12500011 ScaDFX=  1.000000  1.000000  1.000000  1.000000
 GSVD:  LWork=       -1353 too small for GESVD, short by        5940 words or        5940 for optimal perf.
 Range of M.O.s used for correlation:    34   913
 NBasis=   913 NAE=    96 NBE=    96 NFC=    33 NFV=     0
 NROrb=    880 NOA=    63 NOB=    63 NVA=   817 NVB=   817

 **** Warning!!: The largest alpha MO coefficient is  0.43891971D+02

 NEqPCM:  Using non-equilibrium solvation (IEInf=1, Eps=  24.8520, EpsInf=   1.8526)
 Inv3:  Mode=1 IEnd=    37446267.
 Iteration    1 A*A^-1 deviation from unit magnitude is 3.77D-15 for    895.
 Iteration    1 A*A^-1 deviation from orthogonality  is 1.93D-15 for   1360    236.
 Iteration    1 A^-1*A deviation from unit magnitude is 4.00D-15 for    895.
 Iteration    1 A^-1*A deviation from orthogonality  is 1.89D-15 for   2171   1272.
 Orbital symmetries:
       Occupied  (A) (A) (A) (A) (A) (A) (A) (A) (A) (A) (A) (A)
                 (A) (A) (A) (A) (A) (A) (A) (A) (A) (A) (A) (A)
                 (A) (A) (A) (A) (A) (A) (A) (A) (A) (A) (A) (A)
                 (A) (A) (A) (A) (A) (A) (A) (A) (A) (A) (A) (A)
                 (A) (A) (A) (A) (A) (A) (A) (A) (A) (A) (A) (A)
                 (A) (A) (A) (A) (A) (A) (A) (A) (A) (A) (A) (A)
                 (A) (A) (A) (A) (A) (A) (A) (A) (A) (A) (A) (A)
                 (A) (A) (A) (A) (A) (A) (A) (A) (A) (A) (A) (A)
       Virtual   (A) (A) (A) (A) (A) (A) (A) (A) (A) (A) (A) (A)
                 (A) (A) (A) (A) (A) (A) (A) (A) (A) (A) (A) (A)
                 (A) (A) (A) (A) (A) (A) (A) (A) (A) (A) (A) (A)
                 (A) (A) (A) (A) (A) (A) (A) (A) (A) (A) (A) (A)
                 (A) (A) (A) (A) (A) (A) (A) (A) (A) (A) (A) (A)
                 (A) (A) (A) (A) (A) (A) (A) (A) (A) (A) (A) (A)
                 (A) (A) (A) (A) (A) (A) (A) (A) (A) (A) (A) (A)
                 (A) (A) (A) (A) (A) (A) (A) (A) (A) (A) (A) (A)
                 (A) (A) (A) (A) (A) (A) (A) (A) (A) (A) (A) (A)
                 (A) (A) (A) (A) (A) (A) (A) (A) (A) (A) (A) (A)
                 (A) (A) (A) (A) (A) (A) (A) (A) (A) (A) (A) (A)
                 (A) (A) (A) (A) (A) (A) (A) (A) (A) (A) (A) (A)
                 (A) (A) (A) (A) (A) (A) (A) (A) (A) (A) (A) (A)
                 (A) (A) (A) (A) (A) (A) (A) (A) (A) (A) (A) (A)
                 (A) (A) (A) (A) (A) (A) (A) (A) (A) (A) (A) (A)
                 (A) (A) (A) (A) (A) (A) (A) (A) (A) (A) (A) (A)
                 (A) (A) (A) (A) (A) (A) (A) (A) (A) (A) (A) (A)
                 (A) (A) (A) (A) (A) (A) (A) (A) (A) (A) (A) (A)
                 (A) (A) (A) (A) (A) (A) (A) (A) (A) (A) (A) (A)
                 (A) (A) (A) (A) (A) (A) (A) (A) (A) (A) (A) (A)
                 (A) (A) (A) (A) (A) (A) (A) (A) (A) (A) (A) (A)
                 (A) (A) (A) (A) (A) (A) (A) (A) (A) (A) (A) (A)
                 (A) (A) (A) (A) (A) (A) (A) (A) (A) (A) (A) (A)
                 (A) (A) (A) (A) (A) (A) (A) (A) (A) (A) (A) (A)
                 (A) (A) (A) (A) (A) (A) (A) (A) (A) (A) (A) (A)
                 (A) (A) (A) (A) (A) (A) (A) (A) (A) (A) (A) (A)
                 (A) (A) (A) (A) (A) (A) (A) (A) (A) (A) (A) (A)
                 (A) (A) (A) (A) (A) (A) (A) (A) (A) (A) (A) (A)
                 (A) (A) (A) (A) (A) (A) (A) (A) (A) (A) (A) (A)
                 (A) (A) (A) (A) (A) (A) (A) (A) (A) (A) (A) (A)
                 (A) (A) (A) (A) (A) (A) (A) (A) (A) (A) (A) (A)
                 (A) (A) (A) (A) (A) (A) (A) (A) (A) (A) (A) (A)
                 (A) (A) (A) (A) (A) (A) (A) (A) (A) (A) (A) (A)
                 (A) (A) (A) (A) (A) (A) (A) (A) (A) (A) (A) (A)
                 (A) (A) (A) (A) (A) (A) (A) (A) (A) (A) (A) (A)
                 (A) (A) (A) (A) (A) (A) (A) (A) (A) (A) (A) (A)
                 (A) (A) (A) (A) (A) (A) (A) (A) (A) (A) (A) (A)
                 (A) (A) (A) (A) (A) (A) (A) (A) (A) (A) (A) (A)
                 (A) (A) (A) (A) (A) (A) (A) (A) (A) (A) (A) (A)
                 (A) (A) (A) (A) (A) (A) (A) (A) (A) (A) (A) (A)
                 (A) (A) (A) (A) (A) (A) (A) (A) (A) (A) (A) (A)
                 (A) (A) (A) (A) (A) (A) (A) (A) (A) (A) (A) (A)
                 (A) (A) (A) (A) (A) (A) (A) (A) (A) (A) (A) (A)
                 (A) (A) (A) (A) (A) (A) (A) (A) (A) (A) (A) (A)
                 (A) (A) (A) (A) (A) (A) (A) (A) (A) (A) (A) (A)
                 (A) (A) (A) (A) (A) (A) (A) (A) (A) (A) (A) (A)
                 (A) (A) (A) (A) (A) (A) (A) (A) (A) (A) (A) (A)
                 (A) (A) (A) (A) (A) (A) (A) (A) (A) (A) (A) (A)
                 (A) (A) (A) (A) (A) (A) (A) (A) (A) (A) (A) (A)
                 (A) (A) (A) (A) (A) (A) (A) (A) (A) (A) (A) (A)
                 (A) (A) (A) (A) (A) (A) (A) (A) (A) (A) (A) (A)
                 (A) (A) (A) (A) (A) (A) (A) (A) (A) (A) (A) (A)
                 (A) (A) (A) (A) (A) (A) (A) (A) (A) (A) (A) (A)
                 (A) (A) (A) (A) (A) (A) (A) (A) (A) (A) (A) (A)
                 (A) (A) (A) (A) (A) (A) (A) (A) (A) (A) (A) (A)
                 (A) (A) (A) (A) (A) (A) (A) (A) (A) (A) (A) (A)
                 (A) (A) (A) (A) (A) (A) (A) (A) (A) (A) (A) (A)
                 (A) (A) (A) (A) (A) (A) (A) (A) (A) (A) (A) (A)
                 (A) (A) (A) (A) (A) (A) (A) (A) (A) (A) (A) (A)
                 (A) (A) (A) (A) (A) (A) (A) (A) (A) (A) (A) (A)
                 (A) (A) (A) (A) (A) (A) (A) (A) (A) (A) (A) (A)
                 (A) (A) (A) (A) (A) (A) (A) (A) (A) (A) (A) (A)
                 (A) (A) (A) (A) (A) (A) (A) (A) (A) (A) (A) (A)
                 (A) (A) (A) (A) (A) (A) (A) (A) (A) (A) (A) (A)
                 (A) (A) (A) (A) (A) (A) (A) (A) (A) (A) (A) (A)
                 (A) (A) (A) (A) (A) (A) (A) (A) (A) (A) (A) (A)
                 (A) (A) (A) (A) (A) (A) (A) (A) (A) (A) (A) (A)
                 (A) (A) (A) (A) (A) (A) (A) (A) (A) (A) (A) (A)
                 (A)
   600 initial guesses have been made.
 Convergence on wavefunction:    0.001000000000000
 Iteration     1 Dimension   600 NMult     0 NNew    600
 CISAX will form   180 AO SS matrices at one time.
 New state      4 was old state      8
 New state      7 was old state      4
 New state      8 was old state     10
 New state      9 was old state      7
 New state     10 was old state      9
 New state     13 was old state     19
 New state     14 was old state     27
 New state     15 was old state     20
 New state     16 was old state     33
 New state     17 was old state     14
 New state     18 was old state     17
 New state     19 was old state     25
 New state     20 was old state     29
 New state     21 was old state     36
 New state     22 was old state     13
 New state     23 was old state     28
 New state     24 was old state     16
 New state     25 was old state     18
 New state     26 was old state     15
 New state     27 was old state     24
 New state     28 was old state     38
 New state     29 was old state     21
 New state     30 was old state     35
 New state     31 was old state     22
 New state     32 was old state     37
 New state     33 was old state     39
 New state     34 was old state     23
 New state     35 was old state     26
 New state     36 was old state     30
 New state     37 was old state     42
 New state     38 was old state     34
 New state     39 was old state     43
 New state     40 was old state     49
 New state     41 was old state     45
 New state     42 was old state     50
 New state     43 was old state     32
 New state     45 was old state     31
 New state     47 was old state     51
 New state     48 was old state     54
 New state     49 was old state     52
 New state     50 was old state     48
 New state     51 was old state     53
 New state     52 was old state     60
 New state     53 was old state     58
 New state     54 was old state     57
 New state     55 was old state     41
 New state     56 was old state     40
 New state     57 was old state     59
 New state     58 was old state     47
 New state     59 was old state     91
 New state     60 was old state     61
 New state     61 was old state     62
 New state     62 was old state     63
 New state     63 was old state     98
 New state     65 was old state     55
 New state     66 was old state     70
 New state     67 was old state     71
 New state     68 was old state     67
 New state     69 was old state     79
 New state     70 was old state     74
 New state     71 was old state     75
 New state     73 was old state     78
 New state     74 was old state    114
 New state     75 was old state     85
 New state     76 was old state     77
 New state     77 was old state    117
 New state     78 was old state     65
 New state     79 was old state     76
 New state     80 was old state     84
 New state     81 was old state     82
 New state     82 was old state     81
 New state     83 was old state     92
 New state     84 was old state     86
 New state     85 was old state     83
 New state     86 was old state     66
 New state     87 was old state     69
 New state     88 was old state    109
 New state     89 was old state     96
 New state     90 was old state     73
 New state     91 was old state     93
 New state     92 was old state     94
 New state     93 was old state     88
 New state     94 was old state    120
 New state     95 was old state    100
 New state     96 was old state    105
 New state     97 was old state    108
 New state     98 was old state    104
 New state     99 was old state     97
 New state    100 was old state     99
 New state    101 was old state     90
 New state    102 was old state    111
 New state    103 was old state     89
 New state    104 was old state    107
 New state    105 was old state    103
 New state    106 was old state    163
 New state    107 was old state     95
 New state    108 was old state    112
 New state    109 was old state    102
 New state    110 was old state    126
 New state    111 was old state    110
 New state    112 was old state    124
 New state    113 was old state    161
 New state    114 was old state    101
 New state    115 was old state     87
 New state    116 was old state    149
 New state    117 was old state    115
 New state    118 was old state    122
 New state    119 was old state    116
 New state    120 was old state    139
 New state    122 was old state    123
 New state    123 was old state    118
 New state    124 was old state    106
 New state    125 was old state    137
 New state    126 was old state    133
 New state    127 was old state    129
 New state    128 was old state    125
 New state    129 was old state    144
 New state    130 was old state    151
 New state    131 was old state    128
 New state    132 was old state    141
 New state    133 was old state    136
 New state    134 was old state    130
 New state    135 was old state    162
 New state    136 was old state    182
 New state    137 was old state    186
 New state    138 was old state    219
 New state    139 was old state    135
 New state    141 was old state    138
 New state    142 was old state    158
 New state    143 was old state    145
 New state    144 was old state    113
 New state    145 was old state    132
 New state    146 was old state    119
 New state    147 was old state    148
 New state    148 was old state    156
 New state    149 was old state    155
 New state    150 was old state    154
 Iteration     2 Dimension   900 NMult   600 NNew    300
 New state      4 was old state      5
 New state      5 was old state      4
 New state     19 was old state     22
 New state     20 was old state     26
 New state     21 was old state     19
 New state     22 was old state     20
 New state     23 was old state     27
 New state     24 was old state     23
 New state     25 was old state     21
 New state     26 was old state     24
 New state     27 was old state     29
 New state     28 was old state     25
 New state     29 was old state     31
 New state     30 was old state     34
 New state     31 was old state     30
 New state     32 was old state     28
 New state     33 was old state     36
 New state     34 was old state     32
 New state     35 was old state     40
 New state     36 was old state     33
 New state     37 was old state     35
 New state     38 was old state     44
 New state     39 was old state     37
 New state     40 was old state     39
 New state     41 was old state     38
 New state     42 was old state     41
 New state     44 was old state     42
 New state     47 was old state     54
 New state     49 was old state     47
 New state     50 was old state     49
 New state     51 was old state     50
 New state     52 was old state     58
 New state     53 was old state     51
 No map to state     54
 New state     55 was old state     52
 New state     56 was old state     53
 New state     57 was old state     56
 New state     58 was old state     65
 New state     59 was old state     64
 New state     60 was old state     57
 New state     61 was old state     59
 New state     62 was old state     60
 New state     63 was old state     62
 New state     64 was old state     63
 New state     65 was old state     61
 New state     66 was old state     81
 New state     67 was old state     66
 New state     68 was old state     82
 New state     69 was old state     67
 New state     70 was old state     68
 New state     71 was old state     79
 New state     72 was old state     69
 New state     73 was old state     70
 New state     74 was old state     78
 New state     75 was old state     74
 New state     76 was old state     71
 New state     77 was old state     72
 New state     78 was old state     76
 New state     79 was old state     73
 New state     80 was old state     75
 New state     81 was old state     77
 New state     82 was old state     83
 New state     83 was old state     80
 New state     84 was old state     89
 New state     85 was old state     86
 New state     86 was old state     84
 New state     87 was old state     85
 New state     88 was old state     90
 New state     89 was old state     88
 New state     90 was old state     87
 New state     91 was old state     92
 New state     92 was old state     91
 New state     93 was old state     95
 New state     94 was old state     96
 New state     95 was old state     98
 New state     96 was old state     93
 New state     97 was old state     94
 New state     98 was old state    116
 New state     99 was old state     97
 New state    100 was old state     99
 New state    101 was old state    100
 New state    103 was old state    101
 New state    104 was old state    115
 New state    105 was old state    112
 New state    106 was old state    103
 New state    107 was old state    104
 New state    108 was old state    106
 New state    109 was old state    105
 New state    110 was old state    118
 New state    111 was old state    110
 New state    112 was old state    107
 New state    113 was old state    108
 New state    114 was old state    109
 New state    115 was old state    111
 New state    116 was old state    113
 New state    118 was old state    119
 New state    119 was old state    120
 New state    120 was old state    128
 New state    121 was old state    122
 New state    122 was old state    124
 New state    123 was old state    121
 New state    124 was old state    123
 New state    125 was old state    127
 New state    126 was old state    125
 No map to state    127
 New state    128 was old state    126
 New state    129 was old state    130
 New state    130 was old state    131
 New state    131 was old state    129
 New state    132 was old state    133
 New state    133 was old state    132
 New state    135 was old state    137
 New state    136 was old state    139
 New state    137 was old state    135
 New state    138 was old state    136
 New state    139 was old state    138
 New state    140 was old state    141
 New state    141 was old state    142
 New state    142 was old state    143
 New state    143 was old state    140
 New state    144 was old state    148
 New state    145 was old state    144
 New state    146 was old state    147
 New state    147 was old state    145
 New state    148 was old state    146
 Iteration     3 Dimension  1200 NMult   900 NNew    300
 New state    142 was old state    143
 New state    143 was old state    142
 Iteration     4 Dimension  1496 NMult  1200 NNew    296
 Iteration     5 Dimension  1602 NMult  1496 NNew    106
 ***********************************************************************
 Excited states from <AA,BB:AA,BB> singles matrix:
 ***********************************************************************
 
 Ground to excited state transition densities written to RWF  633
 Ground to excited state transition electric dipole moments (Au):
       state          X           Y           Z        Dip. S.      Osc.
         1         5.1586     -0.2027     -0.0031     26.6520      1.7135
         2         0.4869      0.3399      0.0649      0.3569      0.0349
         3         0.0988     -0.3797      0.0587      0.1574      0.0156
         4         0.3285      0.2123      0.0560      0.1561      0.0159
         5         0.0673      0.2496     -0.0628      0.0708      0.0074
         6         0.8917      0.3302      0.0086      0.9043      0.0953
         7        -0.0142     -0.6441      0.0159      0.4153      0.0441
         8         0.1510      0.1495      0.0694      0.0500      0.0054
         9         0.2104      0.4004      0.1469      0.2262      0.0249
        10         0.0380      0.5329      0.0240      0.2860      0.0331
        11        -0.5765     -0.1328     -0.0041      0.3500      0.0423
        12         0.1275     -0.4524     -0.0588      0.2243      0.0290
        13         0.9681     -0.1341      0.0543      0.9581      0.1307
        14         0.0870     -0.5579     -0.1170      0.3325      0.0456
        15        -0.0574     -0.0465      0.0253      0.0061      0.0008
        16         0.0476     -0.1148     -0.0208      0.0159      0.0022
        17         0.2846      0.2043      0.0789      0.1290      0.0181
        18         0.3921     -0.5778      0.0279      0.4884      0.0688
        19        -0.7820      0.2866      0.0941      0.7025      0.1011
        20        -0.3495     -0.3492     -0.0654      0.2484      0.0360
        21        -0.1124      0.1167     -0.0105      0.0264      0.0039
        22        -0.0158      0.1370     -0.0108      0.0191      0.0028
        23         0.2557      0.0047      0.0221      0.0659      0.0098
        24        -0.0727     -0.1057      0.0097      0.0166      0.0025
        25         0.2296     -0.0736      0.0596      0.0617      0.0093
        26        -0.3070      0.3128     -0.0084      0.1922      0.0292
        27        -0.9366     -1.0729      0.0377      2.0297      0.3087
        28         0.1323      0.2690     -0.0018      0.0898      0.0137
        29        -0.2353      0.6609      0.0084      0.4923      0.0755
        30         1.4175     -0.0556     -0.0017      2.0125      0.3095
        31        -0.0860     -0.0819      0.1955      0.0523      0.0081
        32        -0.0231     -0.0915      0.0048      0.0089      0.0014
        33        -0.8283      0.0666     -0.1142      0.7036      0.1104
        34         0.4865      0.0262      0.0703      0.2423      0.0384
        35         0.7392     -0.1352     -0.0799      0.5711      0.0907
        36         0.0002      0.1954      0.0201      0.0386      0.0062
        37        -0.3434     -0.4355     -0.1081      0.3193      0.0514
        38        -0.0738     -0.1555     -0.0387      0.0311      0.0050
        39        -0.0722      0.1209      0.0770      0.0258      0.0042
        40         0.2316     -0.0129     -0.0852      0.0611      0.0099
        41        -0.0313      0.0031      0.0136      0.0012      0.0002
        42         0.0482     -0.0151     -0.0094      0.0026      0.0004
        43         0.0147     -0.0223     -0.0997      0.0107      0.0018
        44        -0.1351     -0.0022      0.0173      0.0186      0.0031
        45         0.8010     -0.0525      0.0118      0.6444      0.1071
        46        -0.2066     -0.3135      0.0403      0.1426      0.0239
        47         0.7725     -0.4297      0.0323      0.7824      0.1323
        48         0.6579      0.6921     -0.0228      0.9124      0.1545
        49         0.2480      0.0182     -0.0347      0.0630      0.0107
        50        -0.4024     -0.1781     -0.0408      0.1953      0.0333
        51        -0.0171      0.1691      0.0698      0.0338      0.0058
        52        -0.2268      0.0134      0.0067      0.0517      0.0089
        53         0.1587     -0.1128      0.0446      0.0399      0.0069
        54         0.0123     -0.0213     -0.1111      0.0129      0.0022
        55        -0.0457      0.1150     -0.0106      0.0154      0.0027
        56        -0.0331     -0.0526      0.0262      0.0045      0.0008
        57        -0.1008      0.1888     -0.0515      0.0484      0.0085
        58        -0.1070      0.1784      0.0068      0.0433      0.0076
        59         0.1328     -0.0222     -0.0013      0.0181      0.0032
        60        -0.0493      0.0301     -0.0056      0.0034      0.0006
        61        -0.0770     -0.0459      0.0002      0.0080      0.0014
        62        -0.0437      0.0850     -0.0438      0.0110      0.0020
        63        -0.0115      0.0659     -0.0196      0.0049      0.0009
        64        -0.0165      0.0402      0.1150      0.0151      0.0027
        65        -0.0027     -0.0451     -0.0173      0.0023      0.0004
        66         0.4492      0.3874      0.1799      0.3843      0.0703
        67        -0.0393      0.0724      0.0294      0.0077      0.0014
        68         0.8281     -1.4520      0.0222      2.7946      0.5155
        69        -0.0181     -0.0200      0.1626      0.0272      0.0051
        70        -0.1363      0.0952      0.0297      0.0285      0.0053
        71        -0.2268      0.1882     -0.0483      0.0892      0.0167
        72         0.1628      0.1502      0.0039      0.0491      0.0092
        73        -0.2266     -0.2307     -0.0840      0.1116      0.0210
        74         0.4418      0.1248      0.0474      0.2130      0.0402
        75        -0.0496      0.1358     -0.1551      0.0450      0.0085
        76         0.2478      0.0785     -0.1998      0.1075      0.0203
        77        -0.2012      0.0111      0.0251      0.0412      0.0078
        78         0.1370     -0.0297      0.0967      0.0290      0.0055
        79         0.0587      0.1372      0.2392      0.0795      0.0151
        80        -0.0324      0.0898      0.0629      0.0131      0.0025
        81         0.2123     -0.0787      0.1467      0.0728      0.0139
        82         0.0716      0.1027      0.0184      0.0160      0.0031
        83         0.2167     -0.0284     -0.0674      0.0523      0.0101
        84         0.0055      0.4120     -0.0168      0.1701      0.0330
        85         0.0655      0.2523     -0.0660      0.0723      0.0141
        86        -0.4382     -0.0592     -0.0662      0.1999      0.0390
        87         0.0342      0.4041     -0.0403      0.1661      0.0324
        88        -0.2671     -0.1533     -0.0178      0.0951      0.0186
        89         0.0179     -0.0546     -0.0083      0.0034      0.0007
        90         0.0383      0.0498      0.0276      0.0047      0.0009
        91         0.1344     -0.0199      0.0606      0.0221      0.0044
        92         0.1655     -0.0661      0.0183      0.0321      0.0063
        93         0.2429     -0.1319     -0.0256      0.0770      0.0152
        94        -0.0055     -0.0989      0.0113      0.0099      0.0020
        95         0.4046     -0.1525      0.0601      0.1906      0.0377
        96        -0.1926      0.0654     -0.0611      0.0451      0.0089
        97        -0.0835      0.1555      0.0668      0.0356      0.0071
        98         0.3914     -0.1277      0.0252      0.1702      0.0337
        99         0.0497     -0.0079     -0.0704      0.0075      0.0015
       100         0.1062     -0.1043     -0.1573      0.0469      0.0093
       101        -0.1393      0.0114     -0.0284      0.0204      0.0041
       102         0.0343     -0.0829      0.0146      0.0083      0.0016
       103         0.0229     -0.0861     -0.0232      0.0085      0.0017
       104         0.0067     -0.0398      0.0167      0.0019      0.0004
       105         0.5080      0.4106      0.0258      0.4273      0.0857
       106        -0.0243     -0.2089     -0.0133      0.0444      0.0089
       107         0.0556     -0.1518     -0.0099      0.0262      0.0053
       108        -0.0081      0.1049      0.0102      0.0112      0.0022
       109         0.0523     -0.0561      0.0886      0.0137      0.0028
       110        -0.0230     -0.8431      0.0608      0.7151      0.1444
       111         0.0228      0.0466     -0.0838      0.0097      0.0020
       112         0.0224      0.0373      0.0437      0.0038      0.0008
       113        -0.0612     -0.0043     -0.0358      0.0051      0.0010
       114        -0.2032      0.1566      0.1537      0.0895      0.0182
       115         0.0021      0.2140      0.0138      0.0460      0.0094
       116         0.0627      0.0335     -0.0279      0.0058      0.0012
       117         0.0056     -0.0709     -0.0320      0.0061      0.0013
       118        -0.0410     -0.0652      0.0665      0.0104      0.0021
       119        -0.0918      0.0441     -0.1189      0.0245      0.0051
       120         0.1573      0.0272     -0.0421      0.0273      0.0056
       121        -0.1493      0.1234     -0.0433      0.0394      0.0081
       122        -0.1729     -0.0248     -0.0871      0.0381      0.0079
       123        -0.0560      0.0294     -0.0958      0.0132      0.0027
       124        -0.0566     -0.2208      0.1081      0.0637      0.0132
       125         0.0394      0.0414     -0.0074      0.0033      0.0007
       126         0.1894      0.0330      0.0099      0.0371      0.0077
       127         0.0569      0.0464     -0.0612      0.0091      0.0019
       128        -0.1082      0.0523      0.0524      0.0172      0.0036
       129         0.5862     -0.0910     -0.0115      0.3520      0.0740
       130         0.2334      0.0337     -0.0595      0.0591      0.0124
       131        -0.2721     -0.1417     -0.0159      0.0944      0.0199
       132         0.3168      0.0673      0.0965      0.1142      0.0241
       133        -0.0633     -0.0618      0.0461      0.0100      0.0021
       134        -0.2415      0.1180     -0.0567      0.0755      0.0160
       135        -0.0582      0.1667      0.1122      0.0438      0.0093
       136        -0.2191      0.4091     -0.0053      0.2154      0.0457
       137        -0.1739      0.3673      0.0552      0.1682      0.0357
       138         0.0029     -0.1492     -0.1224      0.0372      0.0079
       139         0.1366     -0.0442      0.0312      0.0216      0.0046
       140        -0.2258      0.4012     -0.0085      0.2120      0.0452
       141         0.0098     -0.0845      0.0014      0.0072      0.0015
       142        -0.0582      0.1197      0.0196      0.0181      0.0039
       143         0.0501     -0.1442     -0.0670      0.0278      0.0059
       144         0.0522     -0.0174     -0.0171      0.0033      0.0007
       145        -0.0844     -0.0382      0.1224      0.0236      0.0051
       146        -0.0765      0.0607      0.0639      0.0136      0.0029
       147        -0.0319      0.1800     -0.0183      0.0338      0.0073
       148        -0.1374      0.1170     -0.0558      0.0357      0.0077
       149         0.0075      0.0543      0.0537      0.0059      0.0013
       150         0.0077     -0.1065      0.0598      0.0150      0.0033
 Ground to excited state transition velocity dipole moments (Au):
       state          X           Y           Z        Dip. S.      Osc.
         1        -0.4961      0.0202      0.0003      0.2465      1.7042
         2        -0.0713     -0.0497     -0.0095      0.0076      0.0347
         3        -0.0137      0.0565     -0.0085      0.0035      0.0155
         4        -0.0497     -0.0321     -0.0087      0.0036      0.0156
         5        -0.0105     -0.0394      0.0111      0.0018      0.0076
         6        -0.1403     -0.0546     -0.0015      0.0227      0.0955
         7         0.0017      0.1031     -0.0022      0.0106      0.0446
         8        -0.0245     -0.0245     -0.0111      0.0013      0.0054
         9        -0.0352     -0.0658     -0.0245      0.0062      0.0249
        10        -0.0045     -0.0948     -0.0043      0.0090      0.0346
        11         0.1053      0.0246      0.0008      0.0117      0.0430
        12        -0.0246      0.0873      0.0107      0.0083      0.0287
        13        -0.1976      0.0284     -0.0110      0.0400      0.1301
        14        -0.0178      0.1153      0.0243      0.0142      0.0460
        15         0.0123      0.0092     -0.0058      0.0003      0.0009
        16        -0.0103      0.0239      0.0049      0.0007      0.0022
        17        -0.0595     -0.0435     -0.0165      0.0057      0.0180
        18        -0.0836      0.1221     -0.0058      0.0219      0.0692
        19         0.1682     -0.0634     -0.0203      0.0327      0.1010
        20         0.0776      0.0747      0.0148      0.0118      0.0362
        21         0.0240     -0.0262      0.0013      0.0013      0.0038
        22         0.0036     -0.0306      0.0020      0.0010      0.0029
        23        -0.0561     -0.0013     -0.0051      0.0032      0.0095
        24         0.0195      0.0231     -0.0027      0.0009      0.0027
        25        -0.0524      0.0172     -0.0129      0.0032      0.0094
        26         0.0699     -0.0709      0.0018      0.0099      0.0291
        27         0.2115      0.2460     -0.0088      0.1053      0.3079
        28        -0.0302     -0.0612      0.0004      0.0047      0.0135
        29         0.0540     -0.1516     -0.0017      0.0259      0.0750
        30        -0.3270      0.0141      0.0001      0.1071      0.3096
        31         0.0180      0.0198     -0.0452      0.0028      0.0079
        32         0.0056      0.0212     -0.0019      0.0005      0.0014
        33         0.1947     -0.0146      0.0273      0.0389      0.1100
        34        -0.1141     -0.0062     -0.0170      0.0133      0.0374
        35        -0.1756      0.0323      0.0195      0.0323      0.0902
        36         0.0004     -0.0469     -0.0041      0.0022      0.0062
        37         0.0823      0.1058      0.0265      0.0187      0.0515
        38         0.0179      0.0378      0.0094      0.0018      0.0051
        39         0.0169     -0.0302     -0.0190      0.0016      0.0043
        40        -0.0555      0.0019      0.0195      0.0035      0.0095
        41         0.0076     -0.0005     -0.0027      0.0001      0.0002
        42        -0.0115      0.0042      0.0023      0.0002      0.0004
        43        -0.0038      0.0040      0.0234      0.0006      0.0016
        44         0.0332      0.0002     -0.0040      0.0011      0.0030
        45        -0.2010      0.0136     -0.0026      0.0406      0.1086
        46         0.0517      0.0792     -0.0102      0.0090      0.0239
        47        -0.1955      0.1090     -0.0078      0.0502      0.1319
        48        -0.1658     -0.1750      0.0059      0.0581      0.1526
        49        -0.0637     -0.0042      0.0077      0.0041      0.0108
        50         0.1023      0.0458      0.0108      0.0127      0.0331
        51         0.0048     -0.0433     -0.0182      0.0022      0.0058
        52         0.0590     -0.0033     -0.0021      0.0035      0.0091
        53        -0.0408      0.0287     -0.0127      0.0027      0.0068
        54        -0.0025      0.0052      0.0285      0.0008      0.0022
        55         0.0129     -0.0300      0.0015      0.0011      0.0027
        56         0.0084      0.0141     -0.0072      0.0003      0.0008
        57         0.0273     -0.0493      0.0128      0.0033      0.0084
        58         0.0287     -0.0468     -0.0010      0.0030      0.0076
        59        -0.0349      0.0061      0.0002      0.0013      0.0031
        60         0.0135     -0.0080      0.0010      0.0002      0.0006
        61         0.0202      0.0125      0.0005      0.0006      0.0014
        62         0.0140     -0.0233      0.0116      0.0009      0.0021
        63         0.0024     -0.0182      0.0052      0.0004      0.0009
        64         0.0049     -0.0105     -0.0301      0.0010      0.0026
        65         0.0003      0.0123      0.0040      0.0002      0.0004
        66        -0.1227     -0.1062     -0.0494      0.0288      0.0699
        67         0.0113     -0.0201     -0.0077      0.0006      0.0014
        68        -0.2295      0.3997     -0.0058      0.2125      0.5119
        69         0.0041      0.0060     -0.0414      0.0018      0.0042
        70         0.0373     -0.0248     -0.0078      0.0021      0.0049
        71         0.0619     -0.0529      0.0134      0.0068      0.0161
        72        -0.0447     -0.0422     -0.0039      0.0038      0.0090
        73         0.0646      0.0653      0.0217      0.0089      0.0210
        74        -0.1251     -0.0353     -0.0129      0.0171      0.0402
        75         0.0133     -0.0383      0.0448      0.0036      0.0086
        76        -0.0702     -0.0228      0.0544      0.0084      0.0198
        77         0.0570     -0.0032     -0.0045      0.0033      0.0077
        78        -0.0397      0.0079     -0.0264      0.0023      0.0055
        79        -0.0168     -0.0391     -0.0622      0.0057      0.0133
        80         0.0097     -0.0242     -0.0182      0.0010      0.0024
        81        -0.0602      0.0218     -0.0399      0.0057      0.0133
        82        -0.0191     -0.0311     -0.0062      0.0014      0.0032
        83        -0.0587      0.0072      0.0177      0.0038      0.0088
        84        -0.0038     -0.1203      0.0040      0.0145      0.0333
        85        -0.0197     -0.0739      0.0183      0.0062      0.0141
        86         0.1276      0.0170      0.0182      0.0169      0.0385
        87        -0.0108     -0.1176      0.0124      0.0141      0.0321
        88         0.0811      0.0452      0.0060      0.0087      0.0197
        89        -0.0048      0.0162      0.0020      0.0003      0.0007
        90        -0.0117     -0.0141     -0.0085      0.0004      0.0009
        91        -0.0395      0.0056     -0.0182      0.0019      0.0043
        92        -0.0497      0.0196     -0.0046      0.0029      0.0065
        93        -0.0728      0.0386      0.0069      0.0068      0.0154
        94         0.0023      0.0287     -0.0033      0.0008      0.0019
        95        -0.1202      0.0456     -0.0166      0.0168      0.0378
        96         0.0564     -0.0194      0.0139      0.0038      0.0084
        97         0.0240     -0.0451     -0.0179      0.0029      0.0066
        98        -0.1175      0.0371     -0.0077      0.0152      0.0342
        99        -0.0142      0.0027      0.0152      0.0004      0.0010
       100        -0.0323      0.0312      0.0438      0.0039      0.0088
       101         0.0413     -0.0032      0.0087      0.0018      0.0040
       102        -0.0097      0.0241     -0.0038      0.0007      0.0015
       103        -0.0067      0.0251      0.0069      0.0007      0.0016
       104         0.0030      0.0098     -0.0060      0.0001      0.0003
       105        -0.1520     -0.1220     -0.0072      0.0380      0.0843
       106         0.0084      0.0615      0.0040      0.0039      0.0086
       107        -0.0174      0.0456      0.0013      0.0024      0.0053
       108         0.0019     -0.0307     -0.0036      0.0010      0.0021
       109        -0.0138      0.0165     -0.0262      0.0012      0.0025
       110         0.0084      0.2531     -0.0182      0.0645      0.1419
       111        -0.0077     -0.0132      0.0216      0.0007      0.0015
       112        -0.0053     -0.0125     -0.0105      0.0003      0.0006
       113         0.0187      0.0012      0.0088      0.0004      0.0009
       114         0.0601     -0.0476     -0.0433      0.0078      0.0169
       115        -0.0008     -0.0648     -0.0038      0.0042      0.0092
       116        -0.0189     -0.0103      0.0080      0.0005      0.0011
       117        -0.0021      0.0221      0.0097      0.0006      0.0013
       118         0.0131      0.0198     -0.0206      0.0010      0.0021
       119         0.0264     -0.0130      0.0350      0.0021      0.0045
       120        -0.0490     -0.0080      0.0127      0.0026      0.0057
       121         0.0444     -0.0391      0.0099      0.0036      0.0077
       122         0.0530      0.0093      0.0259      0.0036      0.0077
       123         0.0158     -0.0084      0.0277      0.0011      0.0023
       124         0.0167      0.0691     -0.0328      0.0061      0.0131
       125        -0.0136     -0.0139      0.0031      0.0004      0.0008
       126        -0.0593     -0.0093     -0.0033      0.0036      0.0077
       127        -0.0182     -0.0152      0.0176      0.0009      0.0018
       128         0.0343     -0.0160     -0.0161      0.0017      0.0036
       129        -0.1862      0.0296      0.0047      0.0356      0.0752
       130        -0.0731     -0.0096      0.0186      0.0058      0.0122
       131         0.0863      0.0440      0.0064      0.0094      0.0199
       132        -0.1006     -0.0222     -0.0286      0.0114      0.0241
       133         0.0206      0.0202     -0.0122      0.0010      0.0021
       134         0.0785     -0.0373      0.0190      0.0079      0.0166
       135         0.0196     -0.0521     -0.0346      0.0043      0.0090
       136         0.0701     -0.1306      0.0014      0.0220      0.0460
       137         0.0568     -0.1164     -0.0182      0.0171      0.0358
       138        -0.0016      0.0476      0.0370      0.0036      0.0076
       139        -0.0433      0.0153     -0.0090      0.0022      0.0046
       140         0.0725     -0.1260      0.0035      0.0212      0.0441
       141        -0.0037      0.0269     -0.0007      0.0007      0.0015
       142         0.0201     -0.0386     -0.0059      0.0019      0.0040
       143        -0.0158      0.0455      0.0196      0.0027      0.0056
       144        -0.0171      0.0063      0.0059      0.0004      0.0008
       145         0.0280      0.0110     -0.0359      0.0022      0.0045
       146         0.0227     -0.0198     -0.0209      0.0013      0.0028
       147         0.0111     -0.0578      0.0052      0.0035      0.0072
       148         0.0452     -0.0383      0.0182      0.0038      0.0079
       149        -0.0018     -0.0172     -0.0156      0.0005      0.0011
       150        -0.0021      0.0348     -0.0170      0.0015      0.0031
 Ground to excited state transition magnetic dipole moments (Au):
       state          X           Y           Z
         1         0.0478     -0.3192      1.3731
         2         0.0328     -0.0342     -0.0450
         3        -0.0926      0.0079     -0.0415
         4         0.0265      0.0674     -0.3475
         5         0.0652     -0.0374      0.7852
         6        -0.0074      0.1509     -0.5966
         7         0.0690     -0.2001     -1.1795
         8         0.1645      0.1712     -0.6342
         9         0.0235     -0.1251     -1.3824
        10         0.0149      0.2693     -0.3449
        11        -0.0335     -0.0530     -0.0925
        12         0.0120     -0.0330     -0.6418
        13        -0.0032     -0.2767      0.1981
        14        -0.0671     -0.1073      1.1387
        15        -0.0423     -0.4576      0.0856
        16        -0.2818     -0.3531      0.1881
        17        -0.0357     -0.0495     -1.0597
        18        -0.0145     -0.1283     -0.0740
        19        -0.0535      0.2283     -1.3358
        20        -0.1342      0.0537      0.5511
        21        -0.0736      0.1253     -0.1549
        22        -0.0734      0.1661      0.2539
        23         0.0041     -0.1253     -0.8390
        24        -0.0457      0.0960      0.1076
        25         0.0415     -0.0665     -0.0599
        26        -0.0169      0.0617      1.0895
        27         0.0643     -0.4939     -0.8659
        28        -0.0069     -0.0130      0.8182
        29        -0.0713      0.1152      1.9757
        30        -0.0111     -0.3251      1.0682
        31        -0.1557      0.1445     -0.6736
        32         0.0597     -0.0946     -0.2048
        33        -0.0017     -0.0540      2.4992
        34         0.0499      0.0314      0.7022
        35        -0.1703     -0.0141      1.4635
        36         0.4433     -0.0284     -0.5665
        37         0.1915      0.0043      1.2042
        38         0.0756      0.0392      0.4069
        39         0.1834     -0.1559     -0.5263
        40         0.0727     -0.1006      0.1624
        41        -0.0336      0.0961      0.0183
        42         0.0136      0.0098     -0.1147
        43        -0.0343      0.0750      0.1413
        44         0.0633      0.0726     -0.3629
        45        -0.0130     -0.1400      0.8368
        46         0.0473     -0.0843     -1.6773
        47        -0.0618      0.0482     -0.8838
        48         0.0014      0.2772      0.4066
        49        -0.1976     -0.2431     -0.0113
        50         0.2300      0.0983     -1.2463
        51        -0.3184     -0.2167     -0.3045
        52        -0.1901      0.0823      0.5387
        53        -0.1006     -0.0955     -0.9747
        54        -0.2308     -0.1185      0.5048
        55         0.4201     -0.0152      0.0917
        56        -0.0055     -0.2396      0.0057
        57        -0.0146      0.0715      0.0711
        58         0.1274      0.0406      0.0173
        59        -0.0931     -0.0674      0.1425
        60         0.0779     -0.3508      0.2447
        61        -0.0327     -0.2161      0.0830
        62         0.2886     -0.0135     -0.1475
        63        -0.2534      0.1023     -0.2196
        64         0.0659     -0.3092     -0.2491
        65         0.4814     -0.1866      0.1595
        66         0.0854     -0.0487     -3.6066
        67         0.0667      0.1259      0.0872
        68        -0.2067     -0.7633      0.5462
        69         0.0469      0.3365     -0.0173
        70        -0.1107      0.1115      0.2071
        71        -0.1201      0.0349      2.8465
        72        -0.3220      0.0583     -0.4180
        73        -0.0314     -0.1136     -0.0184
        74        -0.1107     -0.1791     -0.3612
        75        -0.2788     -0.1522     -0.0256
        76         0.0844      0.7037      0.4282
        77        -0.3039     -0.2378     -0.0410
        78        -0.0206      0.0152     -0.1626
        79        -0.2752      0.3832     -0.3363
        80        -0.1176     -0.3983     -0.1782
        81         0.3107      0.1111     -0.0344
        82        -0.1194      0.1926     -0.2715
        83         0.0635     -0.0331      0.4073
        84         0.1783     -0.0550     -0.4982
        85         0.0096      0.0736      1.1610
        86         0.0246     -0.1906      0.2234
        87        -0.0731      0.2490      0.2966
        88        -0.1185      0.1272      0.5533
        89         0.2490     -0.0095      0.0410
        90         0.1206     -0.1465      0.0745
        91         0.0109     -0.1677     -0.1157
        92         0.1427     -0.1636     -0.2614
        93         0.0406     -0.1736      0.8080
        94        -0.0970      0.2469      0.3241
        95         0.0120     -0.0726     -0.6690
        96         0.1449      0.4090      0.1070
        97        -0.1218     -0.0807      0.2044
        98         0.1552      0.0353     -0.1018
        99        -0.0296      0.1318     -0.0942
       100         0.1099      0.0317     -0.2212
       101        -0.0144      0.0467     -0.1510
       102        -0.0204      0.1467     -0.1983
       103        -0.1620     -0.2400      0.0829
       104         0.0282     -0.0927      0.2667
       105        -0.0145      0.1392     -2.3964
       106        -0.1779      0.1811      0.3390
       107        -0.2377      0.0654      0.0611
       108         0.0344      0.1461     -0.0432
       109        -0.0833     -0.1260     -0.0104
       110         0.0281     -0.3132     -2.0474
       111        -0.1652     -0.0841      0.0527
       112         0.1702     -0.0370      0.1315
       113        -0.0389      0.0577     -0.0156
       114         0.1137     -0.0867      0.2796
       115         0.0284      0.0248      0.1177
       116         0.2065      0.2062      0.3567
       117        -0.0262     -0.0092     -0.0559
       118         0.0424     -0.1148     -0.0250
       119        -0.1593      0.2514      0.0508
       120         0.0996     -0.0102     -0.2672
       121         0.0829     -0.1370      0.1296
       122        -0.1013     -0.2138     -0.0288
       123        -0.1235     -0.0167     -0.0368
       124        -0.2863     -0.1894     -0.1514
       125         0.1665      0.2612      0.5873
       126        -0.0289      0.7836      0.1574
       127         0.2268      0.0226     -0.0760
       128         0.1086      0.4464     -0.1763
       129        -0.1116      0.0085     -0.1097
       130        -0.1517     -0.0276      0.1164
       131        -0.0286      0.1920      0.1086
       132        -0.1691     -0.1230      1.7454
       133         0.1647      0.6348     -0.4337
       134        -0.0754     -0.0923     -0.5632
       135         0.3679      0.2228     -0.2047
       136         0.1965      0.8172      0.4123
       137        -0.0344     -0.4935     -0.5240
       138         0.0979     -0.2252      0.0449
       139         0.0014      0.2651     -0.0702
       140        -0.0880     -0.2883      0.0958
[...]
    33  H   -0.055249   0.012433  -0.005119   0.000000  -0.000000   0.000023
    34  H    0.444756  -0.054024   0.013316   0.000000  -0.000000  -0.000006
    35  H   -0.050404   0.436234  -0.051604  -0.000000  -0.000000  -0.000001
    36  H    0.007624  -0.034701   0.429619   0.000000  -0.000000   0.004667
    37  H    0.000000  -0.000000  -0.000000   0.389741  -0.028429   0.000002
    38  H    0.000000  -0.000000   0.000000   0.393225  -0.027419  -0.000000
    39  H    0.000000  -0.000000   0.000000  -0.035220   0.404600   0.000000
    40  H   -0.000000   0.000000  -0.000000  -0.035048   0.410032   0.000000
    41  H   -0.000000   0.000000   0.000000  -0.036489   0.412678  -0.000000
    42  H    0.000023  -0.000086   0.001605   0.000003  -0.000000   0.406110
    43  H   -0.000269   0.002325   0.006354   0.000000  -0.000000   0.384487
    44  H   -0.000006   0.000010   0.000078   0.000000   0.000000  -0.043790
    45  H    0.000002  -0.000031  -0.000073   0.000000  -0.000000  -0.035549
    46  H    0.000069   0.000124   0.004679  -0.000000   0.000000  -0.028285
              25         26         27         28         29         30
     1  C    0.002477   0.448120  -0.055721  -0.003955  -0.000051   0.000001
     2  C   -0.001662  -0.034564   0.425125  -0.028627   0.000016  -0.000000
     3  C   -0.009619   0.001989  -0.068935   0.446513   0.000001   0.000000
     4  C    0.006188   0.004398  -0.001044  -0.086412  -0.000000   0.000000
     5  C    0.000072  -0.076744  -0.001049   0.004525   0.000277   0.000016
     6  S   -0.000362   0.000009   0.000094  -0.004786  -0.000000  -0.000000
     7  C    0.000786   0.000003  -0.000061   0.000179   0.000000  -0.000000
     8  C    0.001137   0.000004  -0.000038   0.000092   0.000000   0.000000
     9  N   -0.036599  -0.000005  -0.001318   0.002802   0.000000  -0.000000
    10  S   -0.000501   0.004362  -0.011557   0.000023  -0.004901  -0.000235
    11  C   -0.000014  -0.000823  -0.000414   0.000005  -0.068180   0.013307
    12  C    0.000001   0.000675   0.000372   0.000008   0.018324  -0.003592
    13  N    0.000003  -0.006360   0.000027   0.000003  -0.000041   0.000028
    14  C    0.000000  -0.000018  -0.000078   0.000000   0.449618  -0.058929
    15  C   -0.000000   0.000003   0.000007   0.000000  -0.054797   0.443962
    16  C    0.000000  -0.000006  -0.000003  -0.000000   0.012381  -0.053487
    17  C    0.000000   0.000101   0.000049   0.000000  -0.005172   0.013026
    18  C    0.000006   0.000000   0.000002  -0.000051  -0.000000  -0.000000
    19  C   -0.000003  -0.000000   0.000000  -0.000000   0.000000   0.000000
    20  C    0.000707  -0.000000  -0.000001  -0.000000  -0.000000   0.000000
    21  C   -0.005048   0.000000   0.000112   0.000032  -0.000000   0.000000
    22  C   -0.000000   0.003358   0.000192   0.000062   0.000016  -0.000003
    23  C    0.000000  -0.003235  -0.000053  -0.000029  -0.000001   0.000001
    24  C    0.315488   0.000025  -0.000304   0.000372   0.000000   0.000000
    25  C    4.991797  -0.000015  -0.003169  -0.000245  -0.000000  -0.000000
    26  H   -0.000015   0.470673   0.004823   0.004018  -0.000001   0.000000
    27  H   -0.003169   0.004823   0.528478   0.005970  -0.000010  -0.000000
    28  H   -0.000245   0.004018   0.005970   0.486565  -0.000000   0.000000
    29  H   -0.000000  -0.000001  -0.000010  -0.000000   0.485541  -0.007145
    30  H   -0.000000   0.000000  -0.000000   0.000000  -0.007145   0.493361
    31  H    0.000000  -0.000000  -0.000000   0.000000  -0.000143  -0.006952
    32  H    0.000000  -0.000011   0.000000   0.000000   0.000023  -0.000111
    33  H   -0.000001   0.000000   0.000000   0.000002   0.000000   0.000000
    34  H    0.000001   0.000000  -0.000000  -0.000000   0.000000   0.000000
    35  H    0.000002   0.000000   0.000000   0.000000   0.000000   0.000000
    36  H   -0.003093  -0.000000  -0.000001   0.000001   0.000000   0.000000
    37  H   -0.000000   0.001516   0.000066   0.000005  -0.000001   0.000000
    38  H    0.000000   0.000275   0.000001   0.000001   0.000003  -0.000001
    39  H    0.000000   0.000156   0.000000   0.000001   0.000000  -0.000000
    40  H   -0.000000   0.000195   0.000003  -0.000000  -0.000000   0.000000
    41  H    0.000000   0.000496   0.000000   0.000016   0.000000  -0.000000
    42  H   -0.034830  -0.000062  -0.005000   0.000097   0.000000  -0.000000
    43  H   -0.027412   0.000002   0.000880   0.000008  -0.000000  -0.000000
    44  H    0.416595   0.000000   0.001804  -0.000041   0.000000  -0.000000
    45  H    0.405653   0.000000   0.000602   0.000001   0.000001  -0.000000
    46  H    0.403158  -0.000000   0.000295   0.000010   0.000000   0.000000
              31         32         33         34         35         36
     1  C   -0.000002  -0.000042   0.000000  -0.000000  -0.000000   0.000000
     2  C    0.000000   0.000007   0.000001   0.000000   0.000000  -0.000010
     3  C   -0.000000  -0.000000   0.000002  -0.000000  -0.000001   0.000041
     4  C   -0.000000   0.000000   0.000249   0.000010   0.000018  -0.000604
     5  C    0.000021  -0.000643   0.000000  -0.000000  -0.000000   0.000000
     6  S   -0.000000  -0.000000  -0.004730  -0.000208   0.000027  -0.000363
     7  C   -0.000000   0.000000  -0.067479   0.013610  -0.002076   0.007211
     8  C   -0.000000   0.000000   0.018335  -0.003971   0.011968  -0.044231
     9  N    0.000000   0.000000  -0.000074   0.000031  -0.000132  -0.003865
    10  S    0.000026  -0.000286   0.000000   0.000000   0.000000   0.000000
    11  C   -0.002227   0.008012  -0.000000   0.000000  -0.000000   0.000000
    12  C    0.012202  -0.046863   0.000000  -0.000000   0.000000   0.000000
    13  N   -0.000119  -0.003294   0.000000  -0.000000   0.000000   0.000000
    14  C    0.010955  -0.001345   0.000000   0.000000  -0.000000   0.000000
    15  C   -0.050801   0.007992   0.000000  -0.000000   0.000000  -0.000000
    16  C    0.436862  -0.035894  -0.000000   0.000000  -0.000000   0.000000
    17  C   -0.052271   0.432655   0.000000  -0.000000   0.000000  -0.000000
    18  C   -0.000000   0.000000   0.449231  -0.059338   0.010742  -0.001123
    19  C   -0.000000   0.000000  -0.055249   0.444756  -0.050404   0.007624
    20  C    0.000000  -0.000000   0.012433  -0.054024   0.436234  -0.034701
    21  C   -0.000000  -0.000000  -0.005119   0.013316  -0.051604   0.429619
    22  C   -0.000008   0.003200   0.000000   0.000000  -0.000000   0.000000
    23  C    0.000002  -0.001654  -0.000000  -0.000000  -0.000000  -0.000000
    24  C    0.000000  -0.000000   0.000023  -0.000006  -0.000001   0.004667
    25  C    0.000000   0.000000  -0.000001   0.000001   0.000002  -0.003093
    26  H   -0.000000  -0.000011   0.000000   0.000000   0.000000  -0.000000
    27  H   -0.000000   0.000000   0.000000  -0.000000   0.000000  -0.000001
    28  H    0.000000   0.000000   0.000002  -0.000000   0.000000   0.000001
    29  H   -0.000143   0.000023   0.000000   0.000000   0.000000   0.000000
    30  H   -0.006952  -0.000111   0.000000   0.000000   0.000000   0.000000
    31  H    0.491541  -0.006479   0.000000  -0.000000  -0.000000  -0.000000
    32  H   -0.006479   0.468006  -0.000000   0.000000   0.000000   0.000000
    33  H    0.000000  -0.000000   0.485651  -0.007268  -0.000143   0.000024
    34  H   -0.000000   0.000000  -0.007268   0.492940  -0.006960  -0.000102
    35  H   -0.000000   0.000000  -0.000143  -0.006960   0.490843  -0.006410
    36  H   -0.000000   0.000000   0.000024  -0.000102  -0.006410   0.463542
    37  H   -0.000001   0.000372   0.000000  -0.000000   0.000000  -0.000000
    38  H   -0.000010  -0.000544   0.000000  -0.000000  -0.000000  -0.000000
    39  H    0.000000   0.000126   0.000000  -0.000000   0.000000  -0.000000
    40  H   -0.000004   0.000705   0.000000   0.000000   0.000000  -0.000000
    41  H   -0.000000   0.000032   0.000000  -0.000000  -0.000000   0.000000
    42  H   -0.000000   0.000000  -0.000001   0.000000  -0.000001   0.000456
    43  H    0.000000  -0.000000   0.000003  -0.000000  -0.000021  -0.000445
    44  H   -0.000000   0.000000   0.000000  -0.000000  -0.000001   0.000104
    45  H   -0.000000   0.000000   0.000000  -0.000000  -0.000000   0.000264
    46  H   -0.000000   0.000000  -0.000000   0.000000  -0.000003   0.001091
              37         38         39         40         41         42
     1  C    0.020874  -0.000523  -0.000388   0.000597   0.004338   0.001231
     2  C    0.003276  -0.000044  -0.000033   0.000018   0.000081  -0.003026
     3  C   -0.000189   0.000003   0.000009  -0.000004   0.000010   0.011508
     4  C    0.000048  -0.000001  -0.000000   0.000000  -0.000003  -0.014367
     5  C   -0.034131   0.008796   0.000385  -0.001070  -0.000503  -0.000143
     6  S    0.000000  -0.000000  -0.000000   0.000000   0.000000   0.000260
     7  C    0.000000  -0.000000   0.000000   0.000000  -0.000000  -0.000190
     8  C   -0.000000  -0.000000   0.000000   0.000000  -0.000000   0.007181
     9  N    0.000000  -0.000000  -0.000000   0.000000   0.000000  -0.029114
    10  S    0.000055  -0.000456   0.000022  -0.000017  -0.000223   0.001073
    11  C   -0.000680  -0.000624  -0.000022   0.000025  -0.000104   0.000012
    12  C    0.008474  -0.019137  -0.000075   0.000149  -0.001032  -0.000003
    13  N   -0.017985  -0.017985   0.005931  -0.001167  -0.000709   0.000003
    14  C   -0.000031   0.000324  -0.000002  -0.000068   0.000021   0.000000
    15  C    0.000021  -0.000304   0.000001   0.000052  -0.000007  -0.000000
    16  C   -0.000111   0.002903  -0.000011  -0.000035   0.000035   0.000000
    17  C    0.001385   0.004973  -0.000072   0.003829   0.000274  -0.000000
    18  C    0.000000  -0.000000   0.000000   0.000000  -0.000000  -0.000039
    19  C    0.000000   0.000000   0.000000  -0.000000  -0.000000   0.000023
    20  C   -0.000000  -0.000000  -0.000000   0.000000   0.000000  -0.000086
    21  C   -0.000000   0.000000   0.000000  -0.000000   0.000000   0.001605
    22  C    0.389741   0.393225  -0.035220  -0.035048  -0.036489   0.000003
    23  C   -0.028429  -0.027419   0.404600   0.410032   0.412678  -0.000000
    24  C    0.000002  -0.000000   0.000000   0.000000  -0.000000   0.406110
    25  C   -0.000000   0.000000   0.000000  -0.000000   0.000000  -0.034830
    26  H    0.001516   0.000275   0.000156   0.000195   0.000496  -0.000062
    27  H    0.000066   0.000001   0.000000   0.000003   0.000000  -0.005000
    28  H    0.000005   0.000001   0.000001  -0.000000   0.000016   0.000097
    29  H   -0.000001   0.000003   0.000000  -0.000000   0.000000   0.000000
    30  H    0.000000  -0.000001  -0.000000   0.000000  -0.000000  -0.000000
    31  H   -0.000001  -0.000010   0.000000  -0.000004  -0.000000  -0.000000
    32  H    0.000372  -0.000544   0.000126   0.000705   0.000032   0.000000
    33  H    0.000000   0.000000   0.000000   0.000000   0.000000  -0.000001
    34  H   -0.000000  -0.000000  -0.000000   0.000000  -0.000000   0.000000
    35  H    0.000000  -0.000000   0.000000   0.000000  -0.000000  -0.000001
    36  H   -0.000000  -0.000000  -0.000000  -0.000000   0.000000   0.000456
    37  H    0.510057  -0.019928  -0.001168   0.004793  -0.005081  -0.000002
    38  H   -0.019928   0.509279  -0.001406  -0.005146   0.004744  -0.000000
    39  H   -0.001168  -0.001406   0.511154  -0.019517  -0.019887  -0.000000
    40  H    0.004793  -0.005146  -0.019517   0.509912  -0.021999   0.000000
    41  H   -0.005081   0.004744  -0.019887  -0.021999   0.508912  -0.000000
    42  H   -0.000002  -0.000000  -0.000000   0.000000  -0.000000   0.490835
    43  H   -0.000000  -0.000000  -0.000000   0.000000   0.000000  -0.012086
    44  H   -0.000000  -0.000000  -0.000000  -0.000000   0.000000  -0.003169
    45  H   -0.000000  -0.000000  -0.000000   0.000000   0.000000  -0.001534
    46  H    0.000000   0.000000  -0.000000  -0.000000  -0.000000   0.004071
              43         44         45         46
     1  C   -0.000024   0.000769  -0.000154  -0.000019
     2  C    0.001752   0.002832   0.000153  -0.000548
     3  C   -0.001213  -0.004355  -0.000078   0.001092
     4  C    0.007488   0.003765  -0.000079  -0.001165
     5  C    0.000002  -0.000032   0.000060  -0.000008
     6  S   -0.000434  -0.000222   0.000025  -0.000002
     7  C   -0.000683   0.000023  -0.000002   0.000110
     8  C   -0.017201  -0.000673   0.000130  -0.001289
     9  N   -0.016439  -0.000014   0.005813  -0.001648
    10  S    0.000004   0.000826   0.000255   0.000042
    11  C   -0.000000  -0.000003  -0.000001   0.000001
    12  C    0.000000  -0.000000  -0.000001  -0.000000
    13  N    0.000000   0.000002   0.000000  -0.000000
    14  C   -0.000000  -0.000001   0.000002   0.000000
    15  C    0.000000  -0.000000  -0.000000  -0.000000
    16  C   -0.000000   0.000000   0.000000   0.000000
    17  C    0.000000  -0.000000  -0.000000  -0.000000
    18  C    0.000267   0.000024  -0.000004  -0.000098
    19  C   -0.000269  -0.000006   0.000002   0.000069
    20  C    0.002325   0.000010  -0.000031   0.000124
    21  C    0.006354   0.000078  -0.000073   0.004679
    22  C    0.000000   0.000000   0.000000  -0.000000
    23  C   -0.000000   0.000000  -0.000000   0.000000
    24  C    0.384487  -0.043790  -0.035549  -0.028285
    25  C   -0.027412   0.416595   0.405653   0.403158
    26  H    0.000002   0.000000   0.000000  -0.000000
    27  H    0.000880   0.001804   0.000602   0.000295
    28  H    0.000008  -0.000041   0.000001   0.000010
    29  H   -0.000000   0.000000   0.000001   0.000000
    30  H   -0.000000  -0.000000  -0.000000   0.000000
    31  H    0.000000  -0.000000  -0.000000  -0.000000
    32  H   -0.000000   0.000000   0.000000   0.000000
    33  H    0.000003   0.000000   0.000000  -0.000000
    34  H   -0.000000  -0.000000  -0.000000   0.000000
    35  H   -0.000021  -0.000001  -0.000000  -0.000003
    36  H   -0.000445   0.000104   0.000264   0.001091
    37  H   -0.000000  -0.000000  -0.000000   0.000000
    38  H   -0.000000  -0.000000  -0.000000   0.000000
    39  H   -0.000000  -0.000000  -0.000000  -0.000000
    40  H    0.000000  -0.000000   0.000000  -0.000000
    41  H    0.000000   0.000000   0.000000  -0.000000
    42  H   -0.012086  -0.003169  -0.001534   0.004071
    43  H    0.500033   0.004154  -0.000689  -0.005329
    44  H    0.004154   0.506006  -0.020266  -0.020800
    45  H   -0.000689  -0.020266   0.509596  -0.018247
    46  H   -0.005329  -0.020800  -0.018247   0.501212
 Mulliken charges:
               1
     1  C   -0.410034
     2  C   -0.008163
     3  C   -0.436743
     4  C    0.232580
     5  C    0.232904
     6  S    0.047433
     7  C    0.010292
     8  C    0.191480
     9  N    0.118643
    10  S    0.008423
    11  C    0.028477
    12  C    0.181613
    13  N    0.112314
    14  C   -0.205081
    15  C   -0.168002
    16  C   -0.124357
    17  C   -0.315320
    18  C   -0.199134
    19  C   -0.163569
    20  C   -0.129183
    21  C   -0.315518
    22  C   -0.164527
    23  C   -0.425789
    24  C   -0.205874
    25  C   -0.421500
    26  H    0.176641
    27  H    0.179854
    28  H    0.172835
    29  H    0.174242
    30  H    0.166754
    31  H    0.167407
    32  H    0.176035
    33  H    0.174111
    34  H    0.167212
    35  H    0.167921
    36  H    0.180303
    37  H    0.167053
    38  H    0.169000
    39  H    0.155416
    40  H    0.153767
    41  H    0.154400
    42  H    0.179183
    43  H    0.174483
    44  H    0.156381
    45  H    0.154151
    46  H    0.161486
 Sum of Mulliken charges =   1.00000
 Mulliken charges with hydrogens summed into heavy atoms:
               1
     1  C   -0.233393
     2  C    0.171691
     3  C   -0.263908
     4  C    0.232580
     5  C    0.232904
     6  S    0.047433
     7  C    0.010292
     8  C    0.191480
     9  N    0.118643
    10  S    0.008423
    11  C    0.028477
    12  C    0.181613
    13  N    0.112314
    14  C   -0.030840
    15  C   -0.001248
    16  C    0.043050
    17  C   -0.139285
    18  C   -0.025023
    19  C    0.003644
    20  C    0.038738
    21  C   -0.135216
    22  C    0.171526
    23  C    0.037793
    24  C    0.147792
    25  C    0.050517
 Electronic spatial extent (au):  <R**2>=          15557.2917
 Charge=              1.0000 electrons
 Dipole moment (field-independent basis, Debye):
    X=              1.1948    Y=              0.3166    Z=              1.2539  Tot=              1.7607
 Quadrupole moment (field-independent basis, Debye-Ang):
   XX=            -50.8347   YY=           -123.5258   ZZ=           -165.4082
   XY=             15.7602   XZ=              1.6655   YZ=              0.9373
 Traceless Quadrupole moment (field-independent basis, Debye-Ang):
   XX=             62.4215   YY=            -10.2695   ZZ=            -52.1520
   XY=             15.7602   XZ=              1.6655   YZ=              0.9373
 Octapole moment (field-independent basis, Debye-Ang**2):
  XXX=              9.1504  YYY=             -1.2344  ZZZ=              4.0209  XYY=             28.1656
  XXY=             -0.1683  XXZ=             -7.0689  XZZ=              2.1446  YZZ=              3.5174
  YYZ=              5.0272  XYZ=             29.9828
 Hexadecapole moment (field-independent basis, Debye-Ang**3):
 XXXX=         -13415.1738 YYYY=          -2291.8549 ZZZZ=           -324.6166 XXXY=            111.1453
 XXXZ=            161.3778 YYYX=             86.4619 YYYZ=             17.7616 ZZZX=             -0.0972
 ZZZY=             -2.9974 XXYY=          -2820.4259 XXZZ=          -3401.5790 YYZZ=           -494.2839
 XXYZ=             22.6966 YYXZ=            -11.9705 ZZXY=             36.3925
 N-N= 2.285648745017D+03 E-N=-8.579720025671D+03  KE= 1.711463206416D+03
 Unable to Open any file for archive entry.
 1\1\GINC-CN08\SP\RPBE1PBE TD-FC\def2TZVP\C21H21N2S2(1+)\2100011873\05-
 Nov-2023\0\\# td=(nstates=150) PBE1PBE/def2TZVP scrf(smd, solvent=etha
 nol)\\A-2\\1,1\C,0,1.185932,1.124188,0.259065\C,0,-0.064042,0.518894,0
 .184736\C,0,-1.255062,1.232433,0.206071\C,0,-2.576908,0.775971,0.13436
 8\C,0,2.392634,0.431471,0.171283\S,0,-3.827667,1.970009,-0.187075\C,0,
 -5.077877,0.744792,-0.134775\C,0,-4.509195,-0.50864,0.113846\N,0,-3.11
 8372,-0.458179,0.279721\S,0,2.505198,-1.300121,-0.125106\C,0,4.260315,
 -1.225762,-0.102553\C,0,4.688784,0.08701,0.119416\N,0,3.627512,0.98165
 5,0.287411\C,0,5.159317,-2.267461,-0.279503\C,0,6.517913,-1.973596,-0.
 237257\C,0,6.95394,-0.663841,-0.025333\C,0,6.051566,0.378213,0.153458\
 C,0,-6.446804,0.904176,-0.304215\C,0,-7.251229,-0.226106,-0.226408\C,0
 ,-6.689747,-1.482485,0.014868\C,0,-5.320051,-1.640504,0.18625\C,0,3.84
 7144,2.415669,0.55458\C,0,3.911762,3.249637,-0.717632\C,0,-2.369369,-1
 .660308,0.692423\C,0,-1.918854,-2.522991,-0.47911\H,0,1.228852,2.19919
 6,0.376562\H,0,-0.096636,-0.556945,0.072235\H,0,-1.165193,2.31437,0.22
 4199\H,0,4.813961,-3.279951,-0.448352\H,0,7.240415,-2.768718,-0.37396\
 H,0,8.015538,-0.449707,-0.002068\H,0,6.406822,1.388085,0.306065\H,0,-6
 .875736,1.880738,-0.491225\H,0,-8.32188,-0.129159,-0.357431\H,0,-7.330
 326,-2.354283,0.06736\H,0,-4.901973,-2.621689,0.363736\H,0,3.048585,2.
 754296,1.212168\H,0,4.77271,2.494849,1.122044\H,0,4.082538,4.295496,-0
 .452515\H,0,4.728911,2.924468,-1.364544\H,0,2.978199,3.187215,-1.27998
 2\H,0,-1.531667,-1.329317,1.302601\H,0,-3.027666,-2.224702,1.351768\H,
 0,-1.2761,-1.972556,-1.168349\H,0,-1.359149,-3.379171,-0.096017\H,0,-2
 .775672,-2.899604,-1.040801\\Version=ES64L-G16RevC.02\State=1-A\HF=-17
 17.6408456\RMSD=3.767e-09\PG=C01 [X(C21H21N2S2)]\\@
 The archive entry for this job was punched.


 ON A TOMBSTONE, "HERE LIES LESTER MOORE,
 FOUR SLUGS FROM A 44, NO LES, NO MORE".
 Job cpu time:       3 days  9 hours 25 minutes 54.2 seconds.
 Elapsed time:       0 days  2 hours 22 minutes 43.3 seconds.
 File lengths (MBytes):  RWF=  33264 Int=      0 D2E=      0 Chk=   3408 Scr=     32
 Normal termination of Gaussian 16 at Sun Nov  5 00:04:38 2023.
