 Entering Gaussian System, Link 0=g16
 Initial command:
 /nfs-share/home/2100011873/Gaussian16_AVX2/g16/l1.exe "/nfs-share/home/2100011873/GaussTmp/Gau-135649.inp" -scrdir="/nfs-share/home/2100011873/GaussTmp/"
 Entering Link 1 = /nfs-share/home/2100011873/Gaussian16_AVX2/g16/l1.exe PID=    135650.
  
 Copyright (c) 1988-2021, Gaussian, Inc.  All Rights Reserved.
  
 This is part of the Gaussian(R) 16 program.  It is based on
 the Gaussian(R) 09 system (copyright 2009, Gaussian, Inc.),
 the Gaussian(R) 03 system (copyright 2003, Gaussian, Inc.),
 the Gaussian(R) 98 system (copyright 1998, Gaussian, Inc.),
 the Gaussian(R) 94 system (copyright 1995, Gaussian, Inc.),
 the Gaussian 92(TM) system (copyright 1992, Gaussian, Inc.),
 the Gaussian 90(TM) system (copyright 1990, Gaussian, Inc.),
 the Gaussian 88(TM) system (copyright 1988, Gaussian, Inc.),
 the Gaussian 86(TM) system (copyright 1986, Carnegie Mellon
 University), and the Gaussian 82(TM) system (copyright 1983,
 Carnegie Mellon University). Gaussian is a federally registered
 trademark of Gaussian, Inc.
  
 This software contains proprietary and confidential information,
 including trade secrets, belonging to Gaussian, Inc.
  
 This software is provided under written license and may be
 used, copied, transmitted, or stored only in accord with that
 written license.
  
 The following legend is applicable only to US Government
 contracts under FAR:
  
                    RESTRICTED RIGHTS LEGEND
  
 Use, reproduction and disclosure by the US Government is
 subject to restrictions as set forth in subparagraphs (a)
 and (c) of the Commercial Computer Software - Restricted
 Rights clause in FAR 52.227-19.
  
 Gaussian, Inc.
 340 Quinnipiac St., Bldg. 40, Wallingford CT 06492
  
  
 ---------------------------------------------------------------
 Warning -- This program may not be used in any manner that
 competes with the business of Gaussian, Inc. or will provide
 assistance to any competitor of Gaussian, Inc.  The licensee
 of this program is prohibited from giving any competitor of
 Gaussian, Inc. access to this program.  By using this program,
 the user acknowledges that Gaussian, Inc. is engaged in the
 business of creating and licensing software in the field of
 computational chemistry and represents and warrants to the
 licensee that it is not a competitor of Gaussian, Inc. and that
 it will not use this program in any manner prohibited above.
 ---------------------------------------------------------------
  

 Cite this work as:
 Gaussian 16, Revision C.02,
 M. J. Frisch, G. W. Trucks, H. B. Schlegel, G. E. Scuseria, 
 M. A. Robb, J. R. Cheeseman, G. Scalmani, V. Barone, 
 G. A. Petersson, H. Nakatsuji, X. Li, M. Caricato, A. V. Marenich, 
 J. Bloino, B. G. Janesko, R. Gomperts, B. Mennucci, H. P. Hratchian, 
 J. V. Ortiz, A. F. Izmaylov, J. L. Sonnenberg, D. Williams-Young, 
 F. Ding, F. Lipparini, F. Egidi, J. Goings, B. Peng, A. Petrone, 
 T. Henderson, D. Ranasinghe, V. G. Zakrzewski, J. Gao, N. Rega, 
 G. Zheng, W. Liang, M. Hada, M. Ehara, K. Toyota, R. Fukuda, 
 J. Hasegawa, M. Ishida, T. Nakajima, Y. Honda, O. Kitao, H. Nakai, 
 T. Vreven, K. Throssell, J. A. Montgomery, Jr., J. E. Peralta, 
 F. Ogliaro, M. J. Bearpark, J. J. Heyd, E. N. Brothers, K. N. Kudin, 
 V. N. Staroverov, T. A. Keith, R. Kobayashi, J. Normand, 
 K. Raghavachari, A. P. Rendell, J. C. Burant, S. S. Iyengar, 
 J. Tomasi, M. Cossi, J. M. Millam, M. Klene, C. Adamo, R. Cammi, 
 J. W. Ochterski, R. L. Martin, K. Morokuma, O. Farkas, 
 J. B. Foresman, and D. J. Fox, Gaussian, Inc., Wallingford CT, 2019.
 
 ******************************************
 Gaussian 16:  ES64L-G16RevC.02  7-Dec-2021
                 5-Nov-2023 
 ******************************************
 %nprocshared=36
 Will use up to   36 processors via shared memory.
 %mem=128GB
 --------------------------------------------------------------
 # td=(nstates=150) PBE1PBE/def2TZVP scrf(smd, solvent=ethanol)
 --------------------------------------------------------------
 1/38=1,172=1/1;
 2/12=2,17=6,18=5,40=1/2;
 3/5=44,7=101,11=9,25=1,30=1,70=32201,72=4,74=-13/1,2,3,8;
 4//1;
 5/5=2,38=5,53=4/2;
 8/6=1,10=1,108=150/1;
 9/41=150,42=1,70=2/14;
 6/7=2,8=2,9=2,10=2/1;
 99/5=1,9=1/99;
 ---
 B-1
 ---
 Symbolic Z-matrix:
 Charge =  0 Multiplicity = 1
 C                    -13.19325  -1.96518   0.35751 
 C                    -14.15023  -1.3663   -0.66684 
 C                    -14.19793   0.14589  -0.46999 
 C                    -12.83989   0.78112  -0.26594 
 C                    -11.69919   0.06912  -0.02054 
 C                    -11.73425  -1.46329   0.19794 
 C                    -10.43464   0.80864   0.02792 
 C                    -9.1477    0.36849   0.05193 
 C                    -7.97098   1.21881   0.06402 
 C                    -6.73848   0.61877   0.06999 
 C                    -5.44585   1.23802   0.07821 
 C                    -4.28033   0.52598   0.08121 
 C                    -2.9426    1.06363   0.08601 
 C                    -1.88552   0.18504   0.0869 
 C                    -0.48836   0.47987   0.08838 
 C                     0.48836  -0.47988   0.08838 
 C                     1.88552  -0.18505   0.0869 
 C                     2.9426   -1.06364   0.08601 
 C                     4.28033  -0.52598   0.08121 
 C                     5.44585  -1.23802   0.07821 
 C                     6.73848  -0.61878   0.06999 
 C                     7.97098  -1.21882   0.06402 
 C                     9.1477   -0.36849   0.05193 
 C                     10.43464  -0.80864   0.02791 
 C                     11.69919  -0.06911  -0.02054 
 C                     11.73425   1.4633    0.19794 
 C                    -11.0146  -1.85387   1.51323 
 C                    -11.08758  -2.20926  -0.99638 
 C                    -12.87893   2.29364  -0.39889 
 C                     13.19324   1.96519   0.35753 
 C                     14.15024   1.36631  -0.66682 
 C                     14.19793  -0.14588  -0.46997 
 C                     12.83989  -0.78111  -0.26594 
 C                     11.01458   1.85387   1.51322 
 C                     11.08758   2.20926  -0.99639 
 C                     12.87893  -2.29364  -0.39888 
 C                     8.15656  -2.71718   0.0685 
 C                     2.76951  -2.56424   0.08879 
 C                    -2.7695    2.56423   0.08879 
 C                    -8.15656   2.71718   0.0685 
 H                    -13.55224  -1.70444   1.36372 
 H                    -13.19179  -3.06159   0.30296 
 H                    -15.15315  -1.79827  -0.56305 
 H                    -13.81309  -1.59776  -1.68519 
 H                    -14.83673   0.39264   0.39555 
 H                    -14.68517   0.6313   -1.32865 
 H                    -10.55321   1.88625  -0.00013 
 H                    -8.93157  -0.69442   0.04825 
 H                    -6.72719  -0.47229   0.0666 
 H                    -5.39419   2.32333   0.08055 
 H                    -4.35407  -0.56241   0.07851 
 H                    -2.13643  -0.87673   0.08526 
 H                    -0.17247   1.5217    0.08852 
 H                     0.17247  -1.52171   0.08852 
 H                     2.13644   0.87672   0.08527 
 H                     4.35407   0.5624    0.07851 
 H                     5.39419  -2.32334   0.08054 
 H                     6.72719   0.47229   0.06659 
 H                     8.93157   0.69442   0.04824 
 H                     10.55321  -1.88625  -0.00012 
 H                    -11.41656  -1.28058   2.35641 
 H                    -11.18397  -2.91813   1.72001 
 H                    -9.93616  -1.69087   1.48859 
 H                    -10.06227  -1.88498  -1.18781 
 H                    -11.06723  -3.28878  -0.80027 
 H                    -11.65314  -2.04558  -1.91992 
 H                    -13.91376   2.64896  -0.35064 
 H                    -12.32451   2.80958   0.39214 
 H                    -12.46878   2.63324  -1.36008 
 H                     13.19178   3.06159   0.30298 
 H                     13.55222   1.70445   1.36374 
 H                     15.15315   1.79828  -0.56302 
 H                     13.8131   1.59777  -1.68517 
 H                     14.83673  -0.39263   0.39557 
 H                     14.68518  -0.63129  -1.32863 
 H                     11.18393   2.91814   1.72 
 H                     9.93614   1.69087   1.48856 
 H                     11.41653   1.28059   2.3564 
 H                     10.06228   1.88498  -1.18783 
 H                     11.06723   3.28878  -0.80029 
 H                     11.65315   2.04558  -1.91993 
 H                     13.91377  -2.64895  -0.35064 
 H                     12.32452  -2.80958   0.39214 
 H                     12.46878  -2.63323  -1.36007 
 H                     8.74409  -3.03646   0.93873 
 H                     7.20915  -3.25795   0.09305 
 H                     8.70422  -3.04723  -0.82368 
 H                     3.24804  -3.01107   0.96953 
 H                     1.72147  -2.86803   0.09271 
 H                     3.24239  -3.01383  -0.79361 
 H                    -3.2424    3.01383  -0.7936 
 H                    -3.24802   3.01106   0.96955 
 H                    -1.72147   2.86802   0.09269 
 H                    -7.20914   3.25794   0.09306 
 H                    -8.70421   3.04723  -0.82368 
 H                    -8.74409   3.03646   0.93873 
 
 Stoichiometry    C40H56
 Framework group  C1[X(C40H56)]
 Deg. of freedom   282
 Full point group                 C1      NOp   1
 Largest Abelian subgroup         C1      NOp   1
 Largest concise Abelian subgroup C1      NOp   1
                         Standard orientation:                         
 ---------------------------------------------------------------------
 Center     Atomic      Atomic             Coordinates (Angstroms)
 Number     Number       Type             X           Y           Z
 ---------------------------------------------------------------------
      1          6           0       13.193247    1.965180    0.357514
      2          6           0       14.150234    1.366297   -0.666837
      3          6           0       14.197930   -0.145886   -0.469985
      4          6           0       12.839886   -0.781119   -0.265942
      5          6           0       11.699193   -0.069117   -0.020535
      6          6           0       11.734254    1.463294    0.197940
      7          6           0       10.434640   -0.808638    0.027915
      8          6           0        9.147698   -0.368486    0.051934
      9          6           0        7.970978   -1.218813    0.064023
     10          6           0        6.738479   -0.618773    0.069992
     11          6           0        5.445845   -1.238015    0.078209
     12          6           0        4.280328   -0.525977    0.081210
     13          6           0        2.942601   -1.063627    0.086009
     14          6           0        1.885522   -0.185039    0.086900
     15          6           0        0.488362   -0.479870    0.088382
     16          6           0       -0.488364    0.479879    0.088381
     17          6           0       -1.885523    0.185049    0.086901
     18          6           0       -2.942603    1.063636    0.086010
     19          6           0       -4.280330    0.525984    0.081210
     20          6           0       -5.445847    1.238022    0.078205
     21          6           0       -6.738480    0.618778    0.069986
     22          6           0       -7.970980    1.218816    0.064016
     23          6           0       -9.147699    0.368486    0.051926
     24          6           0      -10.434641    0.808636    0.027911
     25          6           0      -11.699193    0.069112   -0.020539
     26          6           0      -11.734248   -1.463299    0.197935
     27          6           0       11.014600    1.853868    1.513234
     28          6           0       11.087577    2.209256   -0.996377
     29          6           0       12.878927   -2.293643   -0.398885
     30          6           0      -13.193238   -1.965187    0.357525
     31          6           0      -14.150237   -1.366308   -0.666817
     32          6           0      -14.197934    0.145875   -0.469969
     33          6           0      -12.839889    0.781111   -0.265939
     34          6           0      -11.014576   -1.853870    1.513220
     35          6           0      -11.087582   -2.209257   -0.996389
     36          6           0      -12.878932    2.293635   -0.398883
     37          6           0       -8.156563    2.717180    0.068498
     38          6           0       -2.769507    2.564242    0.088788
     39          6           0        2.769504   -2.564233    0.088790
     40          6           0        8.156557   -2.717177    0.068503
     41          1           0       13.552240    1.704444    1.363722
     42          1           0       13.191791    3.061587    0.302962
     43          1           0       15.153148    1.798268   -0.563053
     44          1           0       13.813091    1.597755   -1.685187
     45          1           0       14.836732   -0.392637    0.395545
     46          1           0       14.685170   -0.631298   -1.328645
     47          1           0       10.553209   -1.886254   -0.000126
     48          1           0        8.931571    0.694424    0.048253
     49          1           0        6.727188    0.472294    0.066595
     50          1           0        5.394190   -2.323329    0.080545
     51          1           0        4.354073    0.562407    0.078511
     52          1           0        2.136434    0.876729    0.085263
     53          1           0        0.172471   -1.521700    0.088524
     54          1           0       -0.172472    1.521709    0.088521
     55          1           0       -2.136435   -0.876720    0.085267
     56          1           0       -4.354074   -0.562400    0.078514
     57          1           0       -5.394193    2.323335    0.080538
     58          1           0       -6.727188   -0.472289    0.066588
     59          1           0       -8.931568   -0.694423    0.048240
     60          1           0      -10.553213    1.886252   -0.000123
     61          1           0       11.416560    1.280584    2.356412
     62          1           0       11.183965    2.918133    1.720013
     63          1           0        9.936160    1.690871    1.488587
     64          1           0       10.062275    1.884980   -1.187807
     65          1           0       11.067226    3.288779   -0.800274
     66          1           0       11.653135    2.045583   -1.919919
     67          1           0       13.913764   -2.648960   -0.350635
     68          1           0       12.324510   -2.809583    0.392139
     69          1           0       12.468777   -2.633235   -1.360075
     70          1           0      -13.191780   -3.061594    0.302976
     71          1           0      -13.552222   -1.704450    1.363737
     72          1           0      -15.153149   -1.798281   -0.563022
     73          1           0      -13.813104   -1.597768   -1.685170
     74          1           0      -14.836727    0.392627    0.395567
     75          1           0      -14.685183    0.631285   -1.328625
     76          1           0      -11.183932   -2.918136    1.719999
     77          1           0       -9.936137   -1.690867    1.488558
     78          1           0      -11.416527   -1.280589    2.356403
     79          1           0      -10.062283   -1.884978   -1.187830
     80          1           0      -11.067226   -3.288781   -0.800288
     81          1           0      -11.653150   -2.045585   -1.919926
     82          1           0      -13.913771    2.648951   -0.350639
     83          1           0      -12.324521    2.809577    0.392144
     84          1           0      -12.468777    2.633229   -1.360071
     85          1           0       -8.744087    3.036457    0.938730
     86          1           0       -7.209146    3.257946    0.093047
     87          1           0       -8.704221    3.047232   -0.823677
     88          1           0       -3.248036    3.011075    0.969534
     89          1           0       -1.721470    2.868026    0.092705
     90          1           0       -3.242385    3.013831   -0.793611
     91          1           0        3.242396   -3.013825   -0.793600
     92          1           0        3.248019   -3.011063    0.969546
     93          1           0        1.721466   -2.868016    0.092692
     94          1           0        7.209140   -3.257941    0.093061
     95          1           0        8.704208   -3.047230   -0.823677
     96          1           0        8.744089   -3.036455    0.938730
 ---------------------------------------------------------------------
 Rotational constants (GHZ):           0.3478418           0.0099525           0.0097368
 Standard basis: def2TZVP (5D, 7F)
 There are  1776 symmetry adapted cartesian basis functions of A   symmetry.
 There are  1576 symmetry adapted basis functions of A   symmetry.
  1576 basis functions,  2488 primitive gaussians,  1776 cartesian basis functions
   148 alpha electrons      148 beta electrons
       nuclear repulsion energy      3637.1617565307 Hartrees.
 NAtoms=   96 NActive=   96 NUniq=   96 SFac= 1.00D+00 NAtFMM=   60 NAOKFM=T Big=T
 Integral buffers will be    131072 words long.
 Regular integral format.
 Two-electron integral symmetry is turned on.
 ------------------------------------------------------------------------------
 Polarizable Continuum Model (PCM)
 =================================
 Model                : PCM.
 Atomic radii         : SMD-Coulomb.
 Polarization charges : Total charges.
 Charge compensation  : None.
 Solution method      : On-the-fly selection.
 Cavity type          : VdW (van der Waals Surface) (Alpha=1.000).
 Cavity algorithm     : GePol (No added spheres)
                        Default sphere list used, NSphG=   96.
                        Lebedev-Laikov grids with approx.  5.0 points / Ang**2.
                        Smoothing algorithm: York/Karplus (Gamma=1.0000).
                        Polarization charges: spherical gaussians, with
                                              point-specific exponents (IZeta= 3).
                        Self-potential: point-specific (ISelfS= 7).
                        Self-field    : sphere-specific E.n sum rule (ISelfD= 2).
 Solvent              : Ethanol, Eps=  24.852000 Eps(inf)=   1.852593
 ------------------------------------------------------------------------------
 ------------------------------------------------------------------------------
 Atomic radii for non-electrostatic terms: SMD-CDS.
 ------------------------------------------------------------------------------
 Nuclear repulsion after PCM non-electrostatic terms =     3637.1521877144 Hartrees.
 One-electron integrals computed using PRISM.
   1 Symmetry operations used in ECPInt.
 ECPInt:  NShTT=  220780 NPrTT=  646864 LenC2=  101855 LenP2D=  205935.
 LDataN:  DoStor=T MaxTD1= 6 Len=  172
 NBasis=  1576 RedAO= T EigKep=  1.02D-05  NBF=  1576
 NBsUse=  1576 1.00D-06 EigRej= -1.00D+00 NBFU=  1576
 ExpMin= 9.52D-02 ExpMax= 1.36D+04 ExpMxC= 4.63D+02 IAcc=3 IRadAn=         5 AccDes= 0.00D+00
 Harris functional with IExCor= 1009 and IRadAn=       5 diagonalized for initial guess.
 HarFok:  IExCor= 1009 AccDes= 0.00D+00 IRadAn=         5 IDoV= 1 UseB2=F ITyADJ=14
 ICtDFT=  3500011 ScaDFX=  1.000000  1.000000  1.000000  1.000000
 FoFCou: FMM=F IPFlag=           0 FMFlag=      100000 FMFlg1=        2001
         NFxFlg=           0 DoJE=T BraDBF=F KetDBF=T FulRan=T
         wScrn=  0.000000 ICntrl=       500 IOpCl=  0 I1Cent=   200000004 NGrid=           0
         NMat0=    1 NMatS0=      1 NMatT0=    0 NMatD0=    1 NMtDS0=    0 NMtDT0=    0
 Petite list used in FoFCou.
 Requested convergence on RMS density matrix=1.00D-08 within 128 cycles.
 Requested convergence on MAX density matrix=1.00D-06.
 Requested convergence on             energy=1.00D-06.
 No special actions if energy rises.
 Inv3:  Mode=1 IEnd=   125194800.
 Iteration    1 A*A^-1 deviation from unit magnitude is 3.33D-15 for   4730.
 Iteration    1 A*A^-1 deviation from orthogonality  is 3.11D-15 for   5685    374.
 Iteration    1 A^-1*A deviation from unit magnitude is 2.89D-15 for   3227.
 Iteration    1 A^-1*A deviation from orthogonality  is 4.01D-15 for   4759   1478.
 Error on total polarization charges =  0.11833
 SCF Done:  E(RPBE1PBE) =  -1556.55184506     A.U. after   12 cycles
            NFock= 12  Conv=0.50D-08     -V/T= 2.0060
 SMD-CDS (non-electrostatic) energy       (kcal/mol) =      -6.00
 (included in total energy above)
 DoSCS=F DFT=T ScalE2(SS,OS)=  1.000000  1.000000
 ExpMin= 9.52D-02 ExpMax= 1.36D+04 ExpMxC= 4.63D+02 IAcc=3 IRadAn=         5 AccDes= 0.00D+00
 HarFok:  IExCor=  205 AccDes= 0.00D+00 IRadAn=         5 IDoV=-2 UseB2=F ITyADJ=14
 ICtDFT= 12500011 ScaDFX=  1.000000  1.000000  1.000000  1.000000
 GSVD:  LWork=       -1920 too small for GESVD, short by        8600 words or        8600 for optimal perf.
 Range of M.O.s used for correlation:    41  1576
 NBasis=  1576 NAE=   148 NBE=   148 NFC=    40 NFV=     0
 NROrb=   1536 NOA=   108 NOB=   108 NVA=  1428 NVB=  1428

 **** Warning!!: The largest alpha MO coefficient is  0.30232932D+02


 **** Warning!!: The smallest alpha delta epsilon is  0.85693494D-01

 NEqPCM:  Using non-equilibrium solvation (IEInf=1, Eps=  24.8520, EpsInf=   1.8526)
 Inv3:  Mode=1 IEnd=   125194800.
 Iteration    1 A*A^-1 deviation from unit magnitude is 3.89D-15 for    356.
 Iteration    1 A*A^-1 deviation from orthogonality  is 2.10D-15 for   4777   1517.
 Iteration    1 A^-1*A deviation from unit magnitude is 3.77D-15 for   4735.
 Iteration    1 A^-1*A deviation from orthogonality  is 1.98D-15 for   4076   2226.
 Orbital symmetries:
       Occupied  (A) (A) (A) (A) (A) (A) (A) (A) (A) (A) (A) (A)
                 (A) (A) (A) (A) (A) (A) (A) (A) (A) (A) (A) (A)
                 (A) (A) (A) (A) (A) (A) (A) (A) (A) (A) (A) (A)
                 (A) (A) (A) (A) (A) (A) (A) (A) (A) (A) (A) (A)
                 (A) (A) (A) (A) (A) (A) (A) (A) (A) (A) (A) (A)
                 (A) (A) (A) (A) (A) (A) (A) (A) (A) (A) (A) (A)
                 (A) (A) (A) (A) (A) (A) (A) (A) (A) (A) (A) (A)
                 (A) (A) (A) (A) (A) (A) (A) (A) (A) (A) (A) (A)
                 (A) (A) (A) (A) (A) (A) (A) (A) (A) (A) (A) (A)
                 (A) (A) (A) (A) (A) (A) (A) (A) (A) (A) (A) (A)
                 (A) (A) (A) (A) (A) (A) (A) (A) (A) (A) (A) (A)
                 (A) (A) (A) (A) (A) (A) (A) (A) (A) (A) (A) (A)
                 (A) (A) (A) (A)
       Virtual   (A) (A) (A) (A) (A) (A) (A) (A) (A) (A) (A) (A)
                 (A) (A) (A) (A) (A) (A) (A) (A) (A) (A) (A) (A)
                 (A) (A) (A) (A) (A) (A) (A) (A) (A) (A) (A) (A)
                 (A) (A) (A) (A) (A) (A) (A) (A) (A) (A) (A) (A)
                 (A) (A) (A) (A) (A) (A) (A) (A) (A) (A) (A) (A)
                 (A) (A) (A) (A) (A) (A) (A) (A) (A) (A) (A) (A)
                 (A) (A) (A) (A) (A) (A) (A) (A) (A) (A) (A) (A)
                 (A) (A) (A) (A) (A) (A) (A) (A) (A) (A) (A) (A)
                 (A) (A) (A) (A) (A) (A) (A) (A) (A) (A) (A) (A)
                 (A) (A) (A) (A) (A) (A) (A) (A) (A) (A) (A) (A)
                 (A) (A) (A) (A) (A) (A) (A) (A) (A) (A) (A) (A)
                 (A) (A) (A) (A) (A) (A) (A) (A) (A) (A) (A) (A)
                 (A) (A) (A) (A) (A) (A) (A) (A) (A) (A) (A) (A)
                 (A) (A) (A) (A) (A) (A) (A) (A) (A) (A) (A) (A)
                 (A) (A) (A) (A) (A) (A) (A) (A) (A) (A) (A) (A)
                 (A) (A) (A) (A) (A) (A) (A) (A) (A) (A) (A) (A)
                 (A) (A) (A) (A) (A) (A) (A) (A) (A) (A) (A) (A)
                 (A) (A) (A) (A) (A) (A) (A) (A) (A) (A) (A) (A)
                 (A) (A) (A) (A) (A) (A) (A) (A) (A) (A) (A) (A)
                 (A) (A) (A) (A) (A) (A) (A) (A) (A) (A) (A) (A)
                 (A) (A) (A) (A) (A) (A) (A) (A) (A) (A) (A) (A)
                 (A) (A) (A) (A) (A) (A) (A) (A) (A) (A) (A) (A)
                 (A) (A) (A) (A) (A) (A) (A) (A) (A) (A) (A) (A)
                 (A) (A) (A) (A) (A) (A) (A) (A) (A) (A) (A) (A)
                 (A) (A) (A) (A) (A) (A) (A) (A) (A) (A) (A) (A)
                 (A) (A) (A) (A) (A) (A) (A) (A) (A) (A) (A) (A)
                 (A) (A) (A) (A) (A) (A) (A) (A) (A) (A) (A) (A)
                 (A) (A) (A) (A) (A) (A) (A) (A) (A) (A) (A) (A)
                 (A) (A) (A) (A) (A) (A) (A) (A) (A) (A) (A) (A)
                 (A) (A) (A) (A) (A) (A) (A) (A) (A) (A) (A) (A)
                 (A) (A) (A) (A) (A) (A) (A) (A) (A) (A) (A) (A)
                 (A) (A) (A) (A) (A) (A) (A) (A) (A) (A) (A) (A)
                 (A) (A) (A) (A) (A) (A) (A) (A) (A) (A) (A) (A)
                 (A) (A) (A) (A) (A) (A) (A) (A) (A) (A) (A) (A)
                 (A) (A) (A) (A) (A) (A) (A) (A) (A) (A) (A) (A)
                 (A) (A) (A) (A) (A) (A) (A) (A) (A) (A) (A) (A)
                 (A) (A) (A) (A) (A) (A) (A) (A) (A) (A) (A) (A)
                 (A) (A) (A) (A) (A) (A) (A) (A) (A) (A) (A) (A)
                 (A) (A) (A) (A) (A) (A) (A) (A) (A) (A) (A) (A)
                 (A) (A) (A) (A) (A) (A) (A) (A) (A) (A) (A) (A)
                 (A) (A) (A) (A) (A) (A) (A) (A) (A) (A) (A) (A)
                 (A) (A) (A) (A) (A) (A) (A) (A) (A) (A) (A) (A)
                 (A) (A) (A) (A) (A) (A) (A) (A) (A) (A) (A) (A)
                 (A) (A) (A) (A) (A) (A) (A) (A) (A) (A) (A) (A)
                 (A) (A) (A) (A) (A) (A) (A) (A) (A) (A) (A) (A)
                 (A) (A) (A) (A) (A) (A) (A) (A) (A) (A) (A) (A)
                 (A) (A) (A) (A) (A) (A) (A) (A) (A) (A) (A) (A)
                 (A) (A) (A) (A) (A) (A) (A) (A) (A) (A) (A) (A)
                 (A) (A) (A) (A) (A) (A) (A) (A) (A) (A) (A) (A)
                 (A) (A) (A) (A) (A) (A) (A) (A) (A) (A) (A) (A)
                 (A) (A) (A) (A) (A) (A) (A) (A) (A) (A) (A) (A)
                 (A) (A) (A) (A) (A) (A) (A) (A) (A) (A) (A) (A)
                 (A) (A) (A) (A) (A) (A) (A) (A) (A) (A) (A) (A)
                 (A) (A) (A) (A) (A) (A) (A) (A) (A) (A) (A) (A)
                 (A) (A) (A) (A) (A) (A) (A) (A) (A) (A) (A) (A)
                 (A) (A) (A) (A) (A) (A) (A) (A) (A) (A) (A) (A)
                 (A) (A) (A) (A) (A) (A) (A) (A) (A) (A) (A) (A)
                 (A) (A) (A) (A) (A) (A) (A) (A) (A) (A) (A) (A)
                 (A) (A) (A) (A) (A) (A) (A) (A) (A) (A) (A) (A)
                 (A) (A) (A) (A) (A) (A) (A) (A) (A) (A) (A) (A)
                 (A) (A) (A) (A) (A) (A) (A) (A) (A) (A) (A) (A)
                 (A) (A) (A) (A) (A) (A) (A) (A) (A) (A) (A) (A)
                 (A) (A) (A) (A) (A) (A) (A) (A) (A) (A) (A) (A)
                 (A) (A) (A) (A) (A) (A) (A) (A) (A) (A) (A) (A)
                 (A) (A) (A) (A) (A) (A) (A) (A) (A) (A) (A) (A)
                 (A) (A) (A) (A) (A) (A) (A) (A) (A) (A) (A) (A)
                 (A) (A) (A) (A) (A) (A) (A) (A) (A) (A) (A) (A)
                 (A) (A) (A) (A) (A) (A) (A) (A) (A) (A) (A) (A)
                 (A) (A) (A) (A) (A) (A) (A) (A) (A) (A) (A) (A)
                 (A) (A) (A) (A) (A) (A) (A) (A) (A) (A) (A) (A)
                 (A) (A) (A) (A) (A) (A) (A) (A) (A) (A) (A) (A)
                 (A) (A) (A) (A) (A) (A) (A) (A) (A) (A) (A) (A)
                 (A) (A) (A) (A) (A) (A) (A) (A) (A) (A) (A) (A)
                 (A) (A) (A) (A) (A) (A) (A) (A) (A) (A) (A) (A)
                 (A) (A) (A) (A) (A) (A) (A) (A) (A) (A) (A) (A)
                 (A) (A) (A) (A) (A) (A) (A) (A) (A) (A) (A) (A)
                 (A) (A) (A) (A) (A) (A) (A) (A) (A) (A) (A) (A)
                 (A) (A) (A) (A) (A) (A) (A) (A) (A) (A) (A) (A)
                 (A) (A) (A) (A) (A) (A) (A) (A) (A) (A) (A) (A)
                 (A) (A) (A) (A) (A) (A) (A) (A) (A) (A) (A) (A)
                 (A) (A) (A) (A) (A) (A) (A) (A) (A) (A) (A) (A)
                 (A) (A) (A) (A) (A) (A) (A) (A) (A) (A) (A) (A)
                 (A) (A) (A) (A) (A) (A) (A) (A) (A) (A) (A) (A)
                 (A) (A) (A) (A) (A) (A) (A) (A) (A) (A) (A) (A)
                 (A) (A) (A) (A) (A) (A) (A) (A) (A) (A) (A) (A)
                 (A) (A) (A) (A) (A) (A) (A) (A) (A) (A) (A) (A)
                 (A) (A) (A) (A) (A) (A) (A) (A) (A) (A) (A) (A)
                 (A) (A) (A) (A) (A) (A) (A) (A) (A) (A) (A) (A)
                 (A) (A) (A) (A) (A) (A) (A) (A) (A) (A) (A) (A)
                 (A) (A) (A) (A) (A) (A) (A) (A) (A) (A) (A) (A)
                 (A) (A) (A) (A) (A) (A) (A) (A) (A) (A) (A) (A)
                 (A) (A) (A) (A) (A) (A) (A) (A) (A) (A) (A) (A)
                 (A) (A) (A) (A) (A) (A) (A) (A) (A) (A) (A) (A)
                 (A) (A) (A) (A) (A) (A) (A) (A) (A) (A) (A) (A)
                 (A) (A) (A) (A) (A) (A) (A) (A) (A) (A) (A) (A)
                 (A) (A) (A) (A) (A) (A) (A) (A) (A) (A) (A) (A)
                 (A) (A) (A) (A) (A) (A) (A) (A) (A) (A) (A) (A)
                 (A) (A) (A) (A) (A) (A) (A) (A) (A) (A) (A) (A)
                 (A) (A) (A) (A) (A) (A) (A) (A) (A) (A) (A) (A)
                 (A) (A) (A) (A) (A) (A) (A) (A) (A) (A) (A) (A)
                 (A) (A) (A) (A) (A) (A) (A) (A) (A) (A) (A) (A)
                 (A) (A) (A) (A) (A) (A) (A) (A) (A) (A) (A) (A)
                 (A) (A) (A) (A) (A) (A) (A) (A) (A) (A) (A) (A)
                 (A) (A) (A) (A) (A) (A) (A) (A) (A) (A) (A) (A)
                 (A) (A) (A) (A) (A) (A) (A) (A) (A) (A) (A) (A)
                 (A) (A) (A) (A) (A) (A) (A) (A) (A) (A) (A) (A)
                 (A) (A) (A) (A) (A) (A) (A) (A) (A) (A) (A) (A)
                 (A) (A) (A) (A) (A) (A) (A) (A) (A) (A) (A) (A)
                 (A) (A) (A) (A) (A) (A) (A) (A) (A) (A) (A) (A)
                 (A) (A) (A) (A) (A) (A) (A) (A) (A) (A) (A) (A)
                 (A) (A) (A) (A) (A) (A) (A) (A) (A) (A) (A) (A)
                 (A) (A) (A) (A) (A) (A) (A) (A) (A) (A) (A) (A)
                 (A) (A) (A) (A) (A) (A) (A) (A) (A) (A) (A) (A)
                 (A) (A) (A) (A) (A) (A) (A) (A) (A) (A) (A) (A)
                 (A) (A) (A) (A) (A) (A) (A) (A) (A) (A) (A) (A)
                 (A) (A) (A) (A) (A) (A) (A) (A) (A) (A) (A) (A)
                 (A) (A) (A) (A) (A) (A) (A) (A) (A) (A) (A) (A)
                 (A) (A) (A) (A) (A) (A) (A) (A) (A) (A) (A) (A)
                 (A) (A) (A) (A) (A) (A) (A) (A) (A) (A) (A) (A)
   600 initial guesses have been made.
 Convergence on wavefunction:    0.001000000000000
 Iteration     1 Dimension   600 NMult     0 NNew    600
 CISAX will form    72 AO SS matrices at one time.
 New state      3 was old state      4
 New state      4 was old state      3
 New state      6 was old state      7
 New state      7 was old state      8
 New state      8 was old state     10
 New state     10 was old state      6
 New state     11 was old state     12
 New state     12 was old state     14
 New state     13 was old state     15
 New state     14 was old state     16
 New state     15 was old state     13
 New state     16 was old state     18
 New state     17 was old state     19
 New state     18 was old state     21
 New state     19 was old state     22
 New state     20 was old state     11
 New state     21 was old state     20
 New state     22 was old state     23
 New state     23 was old state     24
 New state     24 was old state     28
 New state     27 was old state     29
 New state     28 was old state     40
 New state     29 was old state     27
 New state     30 was old state     35
 New state     31 was old state     48
 New state     32 was old state     36
 New state     33 was old state     37
 New state     34 was old state     32
 New state     35 was old state     33
 New state     36 was old state     38
 New state     37 was old state     39
 New state     38 was old state     30
 New state     39 was old state     56
 New state     40 was old state     41
 New state     41 was old state     49
 New state     42 was old state     34
 New state     43 was old state     47
 New state     44 was old state     65
 New state     45 was old state     46
 New state     46 was old state     51
 New state     47 was old state     44
 New state     48 was old state     43
 New state     49 was old state     50
 New state     50 was old state     42
 New state     51 was old state     57
 New state     52 was old state     60
 New state     53 was old state     52
 New state     54 was old state     53
 New state     56 was old state     66
 New state     57 was old state     59
 New state     59 was old state     45
 New state     60 was old state     78
 New state     61 was old state     62
 New state     62 was old state     98
 New state     63 was old state     64
 New state     64 was old state     63
 New state     65 was old state     69
 New state     66 was old state     67
 New state     67 was old state     54
 New state     68 was old state     71
 New state     69 was old state     61
 New state     70 was old state     74
 New state     71 was old state     76
 New state     73 was old state     77
 New state     74 was old state     73
 New state     75 was old state     70
 New state     76 was old state     80
 New state     77 was old state     81
 New state     78 was old state     68
 New state     79 was old state     89
 New state     80 was old state     83
 New state     81 was old state    100
 New state     82 was old state     91
 New state     83 was old state     75
 New state     84 was old state     85
 New state     85 was old state     86
 New state     86 was old state     82
 New state     87 was old state     88
 New state     88 was old state     87
 New state     89 was old state     90
 New state     90 was old state    103
 New state     91 was old state    138
 New state     93 was old state     84
 New state     94 was old state     93
 New state     95 was old state     94
 New state     96 was old state     79
 New state     97 was old state     96
 New state     98 was old state    119
 New state     99 was old state     95
 New state    100 was old state    101
 New state    101 was old state    107
 New state    102 was old state    115
 New state    103 was old state    102
 New state    104 was old state    128
 New state    105 was old state     99
 New state    106 was old state    116
 New state    107 was old state    104
 New state    108 was old state    124
 New state    109 was old state    106
 New state    110 was old state    108
 New state    111 was old state    140
 New state    112 was old state    120
 New state    113 was old state    118
 New state    114 was old state    109
 New state    115 was old state    113
 New state    116 was old state    117
 New state    117 was old state    112
 New state    118 was old state    110
 New state    119 was old state    114
 New state    120 was old state    143
 New state    121 was old state    127
 New state    122 was old state    105
 New state    123 was old state    111
 New state    124 was old state    131
 New state    125 was old state    122
 New state    126 was old state    141
 New state    127 was old state    139
 New state    128 was old state    129
 New state    129 was old state    160
 New state    131 was old state    133
 New state    132 was old state    126
 New state    133 was old state    163
 New state    134 was old state    136
 New state    135 was old state    125
 New state    136 was old state    137
 New state    137 was old state    135
 New state    138 was old state    134
 New state    139 was old state    144
 New state    140 was old state    183
 New state    141 was old state    123
 New state    142 was old state    146
 New state    143 was old state    142
 New state    144 was old state    148
 New state    145 was old state    132
 New state    146 was old state    145
 New state    147 was old state    166
 New state    148 was old state    149
 New state    149 was old state    155
 New state    150 was old state    153
 Iteration     2 Dimension   900 NMult   600 NNew    300
 New state      3 was old state      4
 New state      4 was old state      3
 New state      6 was old state      8
 New state      7 was old state      6
 New state      8 was old state      7
 New state      9 was old state     10
 New state     10 was old state      9
 New state     11 was old state     12
 New state     12 was old state     11
 New state     13 was old state     20
 New state     14 was old state     13
 New state     15 was old state     14
 New state     16 was old state     15
 New state     17 was old state     16
 New state     18 was old state     21
 New state     19 was old state     17
 New state     20 was old state     19
 New state     21 was old state     18
 New state     22 was old state     23
 New state     23 was old state     22
 New state     26 was old state     41
 New state     27 was old state     26
 New state     28 was old state     27
 New state     30 was old state     28
 New state     32 was old state     30
 New state     33 was old state     32
 New state     34 was old state     43
 New state     35 was old state     34
 New state     36 was old state     33
 New state     37 was old state     35
 New state     39 was old state     36
 New state     40 was old state     37
 New state     41 was old state     39
 New state     43 was old state     40
 New state     44 was old state     45
 New state     45 was old state     44
 New state     46 was old state     47
 New state     47 was old state     46
 New state     48 was old state     50
 No map to state     49
 New state     50 was old state     48
 New state     51 was old state     49
 New state     52 was old state     51
 New state     53 was old state     54
 New state     54 was old state     59
 New state     55 was old state     52
 New state     56 was old state     53
 New state     57 was old state     55
 New state     58 was old state     57
 New state     59 was old state     56
 New state     60 was old state     63
 New state     61 was old state     64
 New state     62 was old state     58
 New state     63 was old state     60
 New state     64 was old state     62
 New state     65 was old state     61
 New state     66 was old state     83
 New state     68 was old state     65
 New state     69 was old state     66
 New state     70 was old state     69
 New state     71 was old state     70
 New state     72 was old state     71
 New state     73 was old state     68
 New state     74 was old state     75
 New state     75 was old state     72
 New state     76 was old state     73
 New state     77 was old state     74
 New state     79 was old state     76
 No map to state     80
 New state     83 was old state     79
 New state     84 was old state     86
 New state     85 was old state     80
 New state     86 was old state     84
 New state     87 was old state     85
 New state     88 was old state     87
 New state     89 was old state     90
 New state     90 was old state     89
 New state     91 was old state     88
 New state     92 was old state     96
 New state     94 was old state     91
 New state     95 was old state     92
 New state     96 was old state     94
 New state     97 was old state     95
 New state     98 was old state     97
 New state     99 was old state     98
 New state    100 was old state     99
 New state    101 was old state    100
 New state    102 was old state    105
 New state    103 was old state    102
 New state    104 was old state    101
 New state    105 was old state    104
 New state    106 was old state    122
 New state    108 was old state    106
 New state    109 was old state    103
 New state    110 was old state    108
 New state    112 was old state    109
 New state    113 was old state    112
 New state    114 was old state    110
 New state    115 was old state    113
 New state    117 was old state    114
 New state    118 was old state    123
 New state    119 was old state    117
 New state    120 was old state    115
 New state    121 was old state    148
 New state    122 was old state    118
 New state    123 was old state    119
 New state    124 was old state    121
 New state    125 was old state    124
 New state    126 was old state    127
 New state    127 was old state    130
 New state    128 was old state    126
 New state    129 was old state    125
 New state    130 was old state    149
 New state    131 was old state    129
 New state    132 was old state    128
 New state    134 was old state    131
 New state    135 was old state    132
 New state    136 was old state    135
 New state    137 was old state    134
 New state    138 was old state    144
 New state    139 was old state    142
 New state    140 was old state    136
 New state    141 was old state    138
 New state    142 was old state    137
 New state    143 was old state    139
 New state    144 was old state    141
 New state    145 was old state    140
 New state    146 was old state    143
 New state    147 was old state    145
 New state    148 was old state    146
 New state    149 was old state    147
 No map to state    150
 Iteration     3 Dimension  1200 NMult   900 NNew    300
 New state     33 was old state     34
 New state     34 was old state     33
 New state     81 was old state     82
 New state     82 was old state     81
 Iteration     4 Dimension  1492 NMult  1200 NNew    292
 Iteration     5 Dimension  1584 NMult  1492 NNew     92
 Iteration     6 Dimension  1586 NMult  1584 NNew      2
 ***********************************************************************
 Excited states from <AA,BB:AA,BB> singles matrix:
 ***********************************************************************
 
 Ground to excited state transition densities written to RWF  633
 Ground to excited state transition electric dipole moments (Au):
       state          X           Y           Z        Dip. S.      Osc.
         1         9.4367     -1.1950      0.0000     90.4786      4.4163
         2        -0.0000     -0.0000     -0.0569      0.0032      0.0002
         3         0.0000      0.0000      0.1769      0.0313      0.0024
         4        -0.6683      0.5493      0.0000      0.7483      0.0600
         5        -1.5229      0.3387      0.0000      2.4339      0.2171
         6        -1.8293     -0.7058      0.0000      3.8444      0.3671
         7         0.0000      0.0000     -0.0141      0.0002      0.0000
         8         0.0000      0.0000      0.0476      0.0023      0.0002
         9         0.5797      0.2553      0.0000      0.4012      0.0434
        10         0.0000      0.0000      0.1041      0.0108      0.0012
        11         0.0000      0.0000      0.1792      0.0321      0.0037
        12         0.0498     -0.0152     -0.0000      0.0027      0.0003
        13        -0.0000      0.0000      0.0628      0.0039      0.0005
        14         0.0315     -0.1393      0.0000      0.0204      0.0025
        15        -0.0000      0.0000      0.0294      0.0009      0.0001
        16        -0.9290      0.5721      0.0000      1.1902      0.1490
        17        -0.1626     -0.2155     -0.0000      0.0729      0.0094
        18        -0.2814      0.4543      0.0000      0.2855      0.0371
        19        -0.0000     -0.0000     -0.0332      0.0011      0.0001
        20         0.0584     -0.0868     -0.0001      0.0109      0.0015
        21        -0.0000      0.0000     -0.2837      0.0805      0.0107
        22        -0.2375      0.1562     -0.0000      0.0808      0.0109
        23         0.0000     -0.0000     -0.0486      0.0024      0.0003
        24        -0.1844      0.0546      0.0000      0.0370      0.0051
        25        -0.0000     -0.0000      0.0392      0.0015      0.0002
        26        -0.1030      0.0770     -0.0000      0.0165      0.0023
        27        -0.0000      0.0000      0.0282      0.0008      0.0001
        28         0.0000      0.0000     -0.2093      0.0438      0.0061
        29         0.0000     -0.0000      0.0271      0.0007      0.0001
        30         0.0230     -0.1437     -0.0000      0.0212      0.0030
        31         0.0230     -0.0224     -0.0000      0.0010      0.0001
        32         0.0513     -0.0846     -0.0000      0.0098      0.0014
        33        -0.0000      0.0000     -0.1554      0.0241      0.0035
        34        -0.0000     -0.0000      0.0746      0.0056      0.0008
        35         0.1530      0.1079      0.0000      0.0351      0.0051
        36         0.1072      0.0689      0.0000      0.0162      0.0024
        37         0.0000      0.0000      0.0024      0.0000      0.0000
        38        -0.0000      0.0000      0.0661      0.0044      0.0006
        39         0.0002      0.0006      0.0116      0.0001      0.0000
        40        -0.0207     -0.0765      0.0001      0.0063      0.0009
        41         0.0000      0.0000     -0.0379      0.0014      0.0002
        42         0.0755      0.1002      0.0000      0.0157      0.0023
        43        -0.0000      0.0000     -0.0044      0.0000      0.0000
        44        -0.1109      0.1275     -0.0000      0.0286      0.0042
        45        -0.0408      0.0172      0.0000      0.0020      0.0003
        46        -0.0000     -0.0000      0.0521      0.0027      0.0004
        47         0.0545      0.0304      0.0000      0.0039      0.0006
        48         0.0456     -0.0536     -0.0000      0.0050      0.0007
        49        -0.0000      0.0000     -0.1012      0.0102      0.0016
        50         0.0432     -0.0659     -0.0000      0.0062      0.0009
        51         0.0000      0.0000     -0.0090      0.0001      0.0000
        52         0.0000      0.0000      0.0328      0.0011      0.0002
        53         0.0053      0.0803      0.0000      0.0065      0.0010
        54         0.1522     -0.4224     -0.0000      0.2016      0.0312
        55        -0.0000      0.0000     -0.0753      0.0057      0.0009
        56         0.0762     -0.0407      0.0000      0.0075      0.0012
        57        -0.0000      0.0000     -0.0189      0.0004      0.0001
        58         0.0721     -0.0645     -0.0000      0.0094      0.0015
        59         0.0227      0.0524     -0.0000      0.0033      0.0005
        60         0.0000     -0.0000     -0.0224      0.0005      0.0001
        61        -0.0433     -0.0713      0.0000      0.0070      0.0011
        62        -0.0000     -0.0000     -0.0415      0.0017      0.0003
        63         0.0000     -0.0000      0.0264      0.0007      0.0001
        64         0.0181     -0.0036      0.0000      0.0003      0.0001
        65        -0.1512      0.1147      0.0000      0.0360      0.0058
        66         0.5682     -0.4217     -0.0000      0.5007      0.0805
        67         0.0000     -0.0000      0.0039      0.0000      0.0000
        68         0.0335      0.1085     -0.0000      0.0129      0.0021
        69         0.0000     -0.0001     -0.0803      0.0065      0.0010
        70        -0.2667      0.6231     -0.0000      0.4594      0.0746
        71        -0.1220      0.0141      0.0000      0.0151      0.0025
        72        -0.0574     -0.0984     -0.0000      0.0130      0.0021
        73        -0.0000      0.0000      0.0788      0.0062      0.0010
        74         0.0176      0.0616      0.0000      0.0041      0.0007
        75        -0.0000      0.0000      0.0010      0.0000      0.0000
        76         0.0000      0.0000     -0.0245      0.0006      0.0001
        77        -0.0000      0.0000      0.0468      0.0022      0.0004
        78        -0.0329      0.1132     -0.0000      0.0139      0.0023
        79         0.0000      0.0000     -0.0032      0.0000      0.0000
        80         0.0924      0.1929      0.0000      0.0458      0.0076
        81         0.0271      0.1684      0.0017      0.0291      0.0048
        82         0.0009      0.0055     -0.0529      0.0028      0.0005
        83        -0.0000     -0.0000     -0.0898      0.0081      0.0013
        84         0.0000     -0.0000      0.0329      0.0011      0.0002
        85        -0.0400     -0.0560      0.0000      0.0047      0.0008
        86        -0.0000      0.0000     -0.0571      0.0033      0.0005
        87        -0.0061      0.0072      0.0000      0.0001      0.0000
        88         0.0224      0.0448      0.0000      0.0025      0.0004
        89        -0.0000      0.0000     -0.0189      0.0004      0.0001
        90         0.0000      0.0000     -0.0079      0.0001      0.0000
        91         0.1191     -0.0376     -0.0000      0.0156      0.0026
        92        -0.0000     -0.0000      0.0456      0.0021      0.0004
        93        -0.1007     -0.1238     -0.0000      0.0255      0.0043
        94         0.0000     -0.0000      0.0668      0.0045      0.0008
        95        -0.0537      0.0396     -0.0000      0.0045      0.0008
        96        -0.0000      0.0000     -0.0068      0.0000      0.0000
        97        -0.1440      0.2731      0.0000      0.0953      0.0163
        98        -0.0000      0.0000     -0.0099      0.0001      0.0000
        99         0.0245      0.0548      0.0000      0.0036      0.0006
       100         0.0000     -0.0000     -0.0687      0.0047      0.0008
       101         0.0000     -0.0000      0.0801      0.0064      0.0011
       102        -0.0000      0.0000     -0.1431      0.0205      0.0036
       103        -0.0000      0.0000     -0.0374      0.0014      0.0002
       104        -0.3119      0.0936      0.0000      0.1060      0.0184
       105         0.0000      0.0000      0.0215      0.0005      0.0001
       106        -0.0000      0.0000     -0.0319      0.0010      0.0002
       107        -0.0343      0.2528      0.0000      0.0651      0.0113
       108         0.0118     -0.0273     -0.0000      0.0009      0.0002
       109        -0.0389      0.0248     -0.0000      0.0021      0.0004
       110        -0.0000      0.0000      0.0943      0.0089      0.0016
       111         0.0538      0.0052     -0.0000      0.0029      0.0005
       112         0.0322      0.2108      0.0000      0.0455      0.0080
       113        -0.0000     -0.0000      0.0435      0.0019      0.0003
       114         0.0000     -0.0000      0.1031      0.0106      0.0019
       115         0.2542      0.3680     -0.0000      0.2001      0.0354
       116         0.0001      0.0002      0.0196      0.0004      0.0001
       117        -0.1146     -0.0615     -0.0000      0.0169      0.0030
       118         0.0000      0.0000     -0.0128      0.0002      0.0000
       119        -0.0206      0.1574      0.0000      0.0252      0.0045
       120        -0.0000      0.0000     -0.0389      0.0015      0.0003
       121         0.0000     -0.0000      0.0632      0.0040      0.0007
       122         0.0000     -0.0000     -0.0214      0.0005      0.0001
       123         0.0000     -0.0000     -0.0564      0.0032      0.0006
       124         0.0782     -0.0496      0.0000      0.0086      0.0015
       125        -0.2930     -0.3581     -0.0000      0.2141      0.0385
       126        -0.0000      0.0000      0.0164      0.0003      0.0000
       127        -0.1238      0.1199      0.0000      0.0297      0.0054
       128         0.0000     -0.0000      0.0368      0.0014      0.0002
       129        -0.0104      0.0653     -0.0000      0.0044      0.0008
       130         0.0323     -0.3074      0.0000      0.0955      0.0173
       131        -0.0000      0.0000      0.0531      0.0028      0.0005
       132        -0.0000      0.0000      0.0816      0.0067      0.0012
       133        -0.0208      0.0092     -0.0000      0.0005      0.0001
       134         0.0930     -0.0956      0.0000      0.0178      0.0032
       135        -0.0000      0.0000      0.0252      0.0006      0.0001
       136         0.0485     -0.1381      0.0000      0.0214      0.0039
       137         0.0000     -0.0002     -0.0067      0.0000      0.0000
       138        -0.0941      0.3973     -0.0000      0.1667      0.0305
       139         0.0000     -0.0000     -0.0661      0.0044      0.0008
       140         0.0873      0.0628     -0.0000      0.0116      0.0021
       141        -0.0157      0.0492      0.0000      0.0027      0.0005
       142         0.0000      0.0000      0.0537      0.0029      0.0005
       143        -0.0320      0.0024      0.0000      0.0010      0.0002
       144        -0.0704      0.0880      0.0000      0.0127      0.0023
       145         0.0000     -0.0000      0.1751      0.0307      0.0057
       146        -0.0000      0.0000     -0.0556      0.0031      0.0006
       147        -0.0000      0.0000      0.0339      0.0011      0.0002
       148        -0.3510      0.4760      0.0000      0.3498      0.0651
       149         0.1038     -0.2008     -0.0000      0.0511      0.0095
       150        -0.1358      0.1246      0.0000      0.0340      0.0063
 Ground to excited state transition velocity dipole moments (Au):
       state          X           Y           Z        Dip. S.      Osc.
         1        -0.6889      0.0873     -0.0000      0.4822      4.3907
         2         0.0000      0.0000      0.0055      0.0000      0.0002
         3        -0.0000     -0.0000     -0.0200      0.0004      0.0024
         4         0.0794     -0.0665      0.0000      0.0107      0.0594
         5         0.2031     -0.0460      0.0000      0.0433      0.2160
         6         0.2610      0.0991      0.0000      0.0779      0.3628
         7        -0.0000     -0.0000      0.0020      0.0000      0.0000
         8        -0.0000     -0.0000     -0.0074      0.0001      0.0002
         9        -0.0938     -0.0408      0.0000      0.0105      0.0430
        10        -0.0000     -0.0000     -0.0171      0.0003      0.0012
        11        -0.0000     -0.0000     -0.0308      0.0010      0.0037
        12        -0.0084      0.0031     -0.0000      0.0001      0.0003
        13         0.0000     -0.0000     -0.0114      0.0001      0.0005
        14        -0.0057      0.0262     -0.0000      0.0007      0.0026
        15         0.0000     -0.0000     -0.0059      0.0000      0.0001
        16         0.1732     -0.1083     -0.0000      0.0417      0.1482
        17         0.0304      0.0410      0.0000      0.0026      0.0090
        18         0.0553     -0.0900     -0.0000      0.0112      0.0382
        19        -0.0000      0.0000      0.0065      0.0000      0.0001
        20        -0.0113      0.0172      0.0000      0.0004      0.0014
        21         0.0000     -0.0000      0.0598      0.0036      0.0119
        22         0.0480     -0.0317     -0.0000      0.0033      0.0109
        23        -0.0000      0.0000      0.0101      0.0001      0.0003
        24         0.0377     -0.0115     -0.0000      0.0016      0.0050
        25        -0.0000      0.0000     -0.0083      0.0001      0.0002
        26         0.0212     -0.0161      0.0000      0.0007      0.0023
        27         0.0000     -0.0000     -0.0058      0.0000      0.0001
        28        -0.0000     -0.0000      0.0445      0.0020      0.0063
        29         0.0000      0.0000     -0.0057      0.0000      0.0001
        30        -0.0033      0.0317      0.0000      0.0010      0.0032
        31        -0.0048      0.0049      0.0000      0.0000      0.0001
        32        -0.0106      0.0186      0.0000      0.0005      0.0014
        33         0.0000     -0.0000      0.0340      0.0012      0.0035
        34        -0.0000     -0.0000     -0.0161      0.0003      0.0008
        35        -0.0332     -0.0235     -0.0000      0.0017      0.0050
        36        -0.0232     -0.0147     -0.0000      0.0008      0.0023
        37        -0.0000     -0.0000     -0.0007      0.0000      0.0000
        38        -0.0000     -0.0000     -0.0145      0.0002      0.0006
        39        -0.0000     -0.0001     -0.0022      0.0000      0.0000
        40         0.0056      0.0174     -0.0000      0.0003      0.0010
        41        -0.0000     -0.0000      0.0082      0.0001      0.0002
        42        -0.0171     -0.0224      0.0000      0.0008      0.0024
        43         0.0000      0.0000     -0.0005      0.0000      0.0000
        44         0.0263     -0.0259      0.0000      0.0014      0.0041
        45         0.0092     -0.0037     -0.0000      0.0001      0.0003
        46        -0.0000      0.0000     -0.0120      0.0001      0.0004
        47        -0.0124     -0.0071     -0.0000      0.0002      0.0006
        48        -0.0108      0.0126      0.0000      0.0003      0.0008
        49         0.0000      0.0000      0.0245      0.0006      0.0018
        50        -0.0095      0.0155      0.0000      0.0003      0.0010
        51         0.0000      0.0000      0.0021      0.0000      0.0000
        52         0.0000     -0.0000     -0.0080      0.0001      0.0002
        53         0.0004     -0.0159      0.0000      0.0003      0.0007
        54        -0.0367      0.0971      0.0000      0.0108      0.0309
        55         0.0000     -0.0000      0.0183      0.0003      0.0010
        56        -0.0178      0.0094     -0.0000      0.0004      0.0012
        57        -0.0000     -0.0000      0.0043      0.0000      0.0001
        58        -0.0177      0.0155     -0.0000      0.0006      0.0016
        59        -0.0057     -0.0125      0.0000      0.0002      0.0005
        60         0.0000     -0.0000      0.0054      0.0000      0.0001
        61         0.0099      0.0171     -0.0000      0.0004      0.0011
        62        -0.0000     -0.0000      0.0093      0.0001      0.0002
        63        -0.0000      0.0000     -0.0065      0.0000      0.0001
        64        -0.0043      0.0009      0.0000      0.0000      0.0001
        65         0.0361     -0.0281      0.0000      0.0021      0.0058
        66        -0.1355      0.1029     -0.0000      0.0290      0.0801
        67        -0.0000      0.0000     -0.0010      0.0000      0.0000
        68        -0.0082     -0.0258      0.0000      0.0007      0.0020
        69        -0.0000      0.0000      0.0205      0.0004      0.0012
        70         0.0648     -0.1507      0.0000      0.0269      0.0736
        71         0.0301     -0.0029     -0.0000      0.0009      0.0025
        72         0.0136      0.0248     -0.0000      0.0008      0.0022
        73        -0.0000      0.0000     -0.0194      0.0004      0.0010
        74        -0.0045     -0.0149     -0.0000      0.0002      0.0007
        75         0.0000      0.0000     -0.0011      0.0000      0.0000
        76        -0.0000     -0.0000      0.0067      0.0000      0.0001
        77        -0.0000     -0.0000     -0.0112      0.0001      0.0003
        78         0.0074     -0.0262      0.0000      0.0007      0.0020
        79         0.0000     -0.0000      0.0010      0.0000      0.0000
        80        -0.0232     -0.0469      0.0000      0.0027      0.0073
        81        -0.0068     -0.0417     -0.0005      0.0018      0.0048
        82        -0.0002     -0.0014      0.0145      0.0002      0.0006
        83        -0.0000      0.0000      0.0244      0.0006      0.0016
        84         0.0000     -0.0000     -0.0080      0.0001      0.0002
        85         0.0103      0.0137     -0.0000      0.0003      0.0008
        86         0.0000      0.0000      0.0124      0.0002      0.0004
        87         0.0015     -0.0017     -0.0000      0.0000      0.0000
        88        -0.0058     -0.0114     -0.0000      0.0002      0.0004
        89         0.0000     -0.0000      0.0041      0.0000      0.0000
        90        -0.0000     -0.0000      0.0026      0.0000      0.0000
        91        -0.0295      0.0105      0.0000      0.0010      0.0026
        92         0.0000      0.0000     -0.0114      0.0001      0.0003
        93         0.0251      0.0313      0.0000      0.0016      0.0042
        94         0.0000      0.0000     -0.0169      0.0003      0.0007
        95         0.0141     -0.0098     -0.0000      0.0003      0.0008
        96        -0.0000     -0.0000      0.0013      0.0000      0.0000
        97         0.0373     -0.0681      0.0000      0.0060      0.0157
        98         0.0000     -0.0000      0.0023      0.0000      0.0000
        99        -0.0063     -0.0141      0.0000      0.0002      0.0006
       100        -0.0000      0.0000      0.0175      0.0003      0.0008
       101        -0.0000     -0.0000     -0.0208      0.0004      0.0011
       102         0.0000     -0.0000      0.0370      0.0014      0.0035
       103         0.0000     -0.0000      0.0095      0.0001      0.0002
       104         0.0815     -0.0245     -0.0000      0.0072      0.0185
       105         0.0000     -0.0000     -0.0058      0.0000      0.0001
       106         0.0000     -0.0000      0.0083      0.0001      0.0002
       107         0.0103     -0.0660      0.0000      0.0045      0.0114
       108        -0.0031      0.0070     -0.0000      0.0001      0.0002
       109         0.0096     -0.0068     -0.0000      0.0001      0.0004
       110        -0.0000     -0.0000     -0.0218      0.0005      0.0012
       111        -0.0141     -0.0012      0.0000      0.0002      0.0005
       112        -0.0087     -0.0565      0.0000      0.0033      0.0082
       113        -0.0000     -0.0000     -0.0113      0.0001      0.0003
       114        -0.0000     -0.0000     -0.0294      0.0009      0.0022
       115        -0.0683     -0.0995      0.0000      0.0146      0.0366
       116        -0.0000     -0.0000     -0.0046      0.0000      0.0001
       117         0.0308      0.0171      0.0000      0.0012      0.0031
       118         0.0000     -0.0000      0.0029      0.0000      0.0000
       119         0.0055     -0.0422      0.0000      0.0018      0.0045
       120         0.0000     -0.0000      0.0113      0.0001      0.0003
       121        -0.0000      0.0000     -0.0162      0.0003      0.0007
       122         0.0000      0.0000      0.0059      0.0000      0.0001
       123        -0.0000     -0.0000      0.0151      0.0002      0.0006
       124        -0.0204      0.0136     -0.0000      0.0006      0.0015
       125         0.0803      0.0980     -0.0000      0.0161      0.0396
       126        -0.0000     -0.0000     -0.0049      0.0000      0.0001
       127         0.0336     -0.0321      0.0000      0.0022      0.0053
       128        -0.0000      0.0000     -0.0079      0.0001      0.0002
       129         0.0038     -0.0173      0.0000      0.0003      0.0008
       130        -0.0077      0.0854     -0.0000      0.0074      0.0181
       131        -0.0000     -0.0000     -0.0139      0.0002      0.0005
       132         0.0000     -0.0000     -0.0238      0.0006      0.0014
       133         0.0057     -0.0026     -0.0000      0.0000      0.0001
       134        -0.0268      0.0262      0.0000      0.0014      0.0034
       135         0.0000     -0.0000     -0.0064      0.0000      0.0001
       136        -0.0148      0.0379      0.0000      0.0017      0.0040
       137        -0.0000      0.0000      0.0027      0.0000      0.0000
       138         0.0255     -0.1080      0.0000      0.0123      0.0299
       139        -0.0000      0.0000      0.0181      0.0003      0.0008
       140        -0.0244     -0.0171      0.0000      0.0009      0.0021
       141         0.0041     -0.0136     -0.0000      0.0002      0.0005
       142         0.0000     -0.0000     -0.0142      0.0002      0.0005
       143         0.0089     -0.0000     -0.0000      0.0001      0.0002
       144         0.0195     -0.0243      0.0000      0.0010      0.0023
       145         0.0000      0.0000     -0.0480      0.0023      0.0055
       146         0.0000     -0.0000      0.0160      0.0003      0.0006
       147         0.0000     -0.0000     -0.0087      0.0001      0.0002
       148         0.0977     -0.1327     -0.0000      0.0272      0.0649
       149        -0.0294      0.0555      0.0000      0.0039      0.0094
       150         0.0379     -0.0349      0.0000      0.0027      0.0063
 Ground to excited state transition magnetic dipole moments (Au):
       state          X           Y           Z
         1        -0.0205     -0.2737     -0.0000
         2         0.0000      0.0000     -0.4804
         3        -0.0000      0.0000      0.9482
         4         0.0107     -0.0702      0.0000
         5         0.0109      0.1768      0.0000
         6        -0.0055      0.5975      0.0000
         7         0.0000     -0.0000     -0.2299
         8        -0.0000      0.0000      0.0171
         9         0.0064     -0.0558      0.0000
        10        -0.0000      0.0000     -0.4717
        11        -0.0000      0.0000     -0.2149
        12         0.0039      0.1703     -0.0000
        13        -0.0000      0.0000      0.1922
        14        -0.0691      0.0649     -0.0000
        15         0.0000      0.0000     -0.2983
        16         0.0200      0.2921      0.0000
        17        -0.0065     -0.0029      0.0000
        18         0.0215      0.7230     -0.0000
        19         0.0000      0.0000      0.2093
        20        -0.4930     -1.2004      0.0001
        21         0.0001      0.0003      0.2260
        22        -0.0766      0.2584      0.0000
        23        -0.0000     -0.0000      0.4049
        24         0.2158      0.3799      0.0000
        25        -0.0000     -0.0000     -0.3893
        26        -0.2327     -0.1138     -0.0000
        27         0.0000      0.0000     -1.1891
        28         0.0000     -0.0000     -0.0222
        29         0.0000      0.0000     -0.1402
        30        -0.0209     -0.1516      0.0000
        31         0.0857      0.0417     -0.0000
        32         0.2003      0.5612      0.0002
        33         0.0000     -0.0000      2.0651
        34        -0.0000     -0.0000     -0.5794
        35         0.0845     -0.1486     -0.0000
        36         0.0230      0.4607      0.0001
        37         0.0000      0.0000     -0.8405
        38        -0.0000      0.0000     -1.2280
        39         0.0003     -0.0000     -0.3538
        40        -0.0451      0.0048     -0.0026
        41         0.0000      0.0000      0.0984
        42        -0.0282      0.2855      0.0000
        43         0.0000      0.0000      0.7100
        44         0.0370     -0.1264      0.0000
        45         0.0120     -0.1576     -0.0001
        46        -0.0000     -0.0001     -1.3305
        47         0.0139     -0.0698     -0.0001
        48         0.0123     -0.2552      0.0000
        49         0.0000      0.0001      0.7137
        50        -0.1656     -0.5348      0.0001
        51         0.0000     -0.0000     -0.0005
        52        -0.0000      0.0000     -1.0306
        53        -0.0251      0.0198     -0.0000
        54        -0.0056     -0.2194      0.0001
        55        -0.0000     -0.0000      0.2131
        56        -0.1560     -0.0034      0.0000
        57         0.0000      0.0000     -0.8595
        58        -0.2327     -0.3528      0.0000
        59         0.3305      0.2963      0.0001
        60        -0.0000     -0.0000      0.9527
        61         0.0108     -0.7665      0.0001
        62        -0.0000     -0.0000     -0.4862
        63         0.0000      0.0000     -0.1316
        64        -0.1930     -0.2490     -0.0000
        65        -0.0739     -0.3692     -0.0000
        66        -0.0626     -0.5986      0.0001
        67         0.0000      0.0000     -0.6080
        68        -0.0534     -0.3589      0.0000
        69         0.0000      0.0000      0.3047
        70         0.0473      0.3551      0.0000
        71         0.0202     -0.1156     -0.0000
        72         0.0733      0.1152     -0.0000
        73         0.0000      0.0000      0.1333
        74         0.2355      0.3892      0.0000
        75         0.0000      0.0000      0.2217
        76         0.0000     -0.0000     -0.1207
        77        -0.0000     -0.0000     -0.4015
        78        -0.1378      0.2615      0.0000
        79         0.0000      0.0000      0.8070
        80         0.2015      0.1404     -0.0000
        81        -0.2335      0.0648     -0.0242
        82        -0.0076      0.0020      0.7378
        83        -0.0000     -0.0000      0.4463
        84         0.0000      0.0000     -1.2037
        85         0.1200     -0.1747     -0.0000
        86        -0.0000     -0.0000      0.3822
        87        -0.0677     -0.5950     -0.0001
        88         0.0461     -0.0526     -0.0001
        89         0.0000     -0.0000      0.4308
        90         0.0000      0.0000      1.0392
        91         0.1235      0.2449     -0.0000
        92         0.0000      0.0000      0.2753
        93         0.0063     -0.0420     -0.0000
        94         0.0000      0.0000      0.1713
        95        -0.1145      0.2142     -0.0000
        96        -0.0000     -0.0000     -0.0262
        97         0.0190      0.1497     -0.0001
        98        -0.0000      0.0000     -0.2422
        99         0.2574      0.4121      0.0000
       100        -0.0000     -0.0000      1.7998
       101         0.0000      0.0000     -3.2453
       102        -0.0000     -0.0000      0.9159
       103        -0.0000      0.0000      0.3303
       104         0.0066     -0.4739     -0.0000
       105        -0.0000      0.0000      0.2328
       106        -0.0000      0.0000      0.8798
       107        -0.0139      0.7110     -0.0001
       108         0.0025     -0.1228     -0.0001
       109         0.3394      0.3849      0.0000
       110        -0.0000     -0.0000     -0.4888
       111        -0.4601     -0.0994     -0.0000
       112         0.2419     -0.1152      0.0000
       113        -0.0000     -0.0000     -0.0695
       114         0.0000      0.0000     -1.3723
       115         0.2995      0.7769      0.0011
       116         0.0002      0.0004     -2.3535
       117         0.0728     -0.2598      0.0002
       118        -0.0000     -0.0000      1.5917
       119         0.2381      0.1733     -0.0000
       120         0.0000     -0.0000     -0.4448
       121        -0.0000      0.0000     -1.6100
       122         0.0000     -0.0000      1.6158
       123        -0.0000     -0.0000      1.2887
       124        -0.0420     -0.0527     -0.0001
       125         0.2433      0.5084      0.0001
       126        -0.0000     -0.0000      0.4288
       127        -0.2065      0.3479      0.0002
       128         0.0000      0.0000      2.4390
       129         0.1614      0.3405     -0.0001
       130        -0.0033     -0.0027      0.0001
       131        -0.0000      0.0000      0.5347
       132        -0.0000      0.0000     -0.3291
       133        -0.5794     -0.3297      0.0001
       134         0.1968      0.1584      0.0000
       135         0.0001     -0.0000     -0.3960
       136        -0.1669     -0.0872     -0.0002
       137        -0.0000     -0.0002     -0.2903
       138        -0.0162      0.4421     -0.0001
       139        -0.0000     -0.0000      1.4193
       140        -0.0956      0.3007      0.0000
       141         0.1927      0.8943     -0.0001
       142        -0.0000     -0.0000      0.3573
       143         0.2359      0.4825      0.0000
       144        -0.1212     -0.5461     -0.0000
       145        -0.0000     -0.0000      0.5375
       146         0.0000      0.0001      0.9995
       147         0.0000     -0.0000     -0.0646
       148         0.2535      0.3540      0.0000
       149         0.0854     -0.0926      0.0000
       150        -0.1010      0.3390      0.0000
 Ground to excited state transition velocity quadrupole moments (Au):
       state          XX          YY          ZZ          XY          XZ          YZ
         1        -0.0000     -0.0000      0.0000      0.0000      0.1281     -0.0129
         2        -5.9739     -0.0688     -0.0115      0.1792     -0.0000     -0.0000
         3        20.8088      0.3079      0.0675     -1.0499     -0.0000      0.0000
         4        -0.0000     -0.0000     -0.0000      0.0000      0.1231     -0.0194
         5         0.0000     -0.0000     -0.0000     -0.0000     -0.1672      0.0122
         6        -0.0000      0.0000     -0.0000      0.0000     -0.7197      0.0904
         7         3.4823      0.2142      0.0094     -0.8165      0.0000     -0.0000
         8         2.8898      0.1002      0.0006     -0.2379     -0.0000      0.0000
         9        -0.0000     -0.0000      0.0000      0.0000      0.0637     -0.0204
        10         8.2726      0.2680      0.0314     -0.9502     -0.0000     -0.0000
        11         6.8699     -0.1947      0.0181     -0.0179     -0.0000     -0.0000
        12         0.0001      0.0000      0.0000     -0.0000     -0.2090      0.0163
        13         4.1574     -0.1938      0.0049      0.2056     -0.0000     -0.0000
        14         0.0002     -0.0000     -0.0000     -0.0000      0.1114     -0.0531
        15         1.3697     -0.1513      0.0081     -0.2575     -0.0000      0.0000
        16         0.0000     -0.0000      0.0000      0.0000     -0.3039      0.0088
        17        -0.0001      0.0000     -0.0000      0.0000     -0.0024      0.0138
        18         0.0001      0.0000      0.0000     -0.0000     -0.8399      0.0274
        19         0.6156      0.2086      0.0245      0.0151     -0.0000      0.0000
        20        -0.0001      0.0000     -0.0000      0.0001      1.2564     -0.4367
        21        -0.4717      0.0179     -0.0571      0.1394     -0.0003      0.0001
        22         0.0002      0.0000      0.0000      0.0000     -0.4346      0.0442
        23         0.4985      0.0187     -0.0199      0.4246      0.0000     -0.0000
        24         0.0001      0.0000      0.0000      0.0000     -0.3719      0.1033
        25        -2.4891     -0.0380     -0.0195     -0.1796      0.0000      0.0000
        26         0.0000      0.0000      0.0000     -0.0000      0.0654     -0.1595
        27         1.7834      0.1668     -0.0285     -1.4771     -0.0000     -0.0000
        28        -0.0710     -0.0405      0.0269      0.1135     -0.0000      0.0000
        29         1.2986     -0.0203     -0.0051     -0.2577     -0.0000      0.0000
        30        -0.0001      0.0000      0.0000      0.0000      0.1796     -0.0197
        31         0.0000     -0.0000      0.0000     -0.0000     -0.0710      0.0515
        32        -0.0005      0.0000      0.0000      0.0002     -0.5122      0.1574
        33        -4.4672      0.0775      0.0521      2.1464      0.0000      0.0000
        34         0.0843     -0.0071      0.0468     -0.5762      0.0000     -0.0000
        35         0.0001     -0.0000     -0.0000     -0.0000      0.0118      0.0655
        36         0.0001     -0.0000      0.0000      0.0001     -0.4537     -0.0292
        37        -0.2196      0.1762     -0.0180     -0.8252     -0.0000     -0.0000
        38         3.8177      0.3948      0.0209     -1.5758     -0.0000     -0.0000
        39         1.1259      0.0264     -0.0225     -0.4168     -0.0010      0.0002
        40         0.0084      0.0002     -0.0002     -0.0031      0.1390     -0.0239
        41        -0.8921     -0.0465      0.0164      0.1897     -0.0001      0.0000
        42        -0.0000     -0.0000     -0.0000      0.0000     -0.1432     -0.0240
        43        -0.6924     -0.0819      0.0212      0.7100     -0.0000      0.0000
        44         0.0000      0.0000     -0.0000      0.0000      0.0802      0.0270
        45         0.0000     -0.0000      0.0000     -0.0001      0.0619     -0.0214
        46         1.8751      0.1524     -0.0354     -1.3129      0.0000     -0.0000
        47         0.0001      0.0000     -0.0000     -0.0001      0.0982     -0.0085
        48        -0.0002     -0.0000     -0.0000      0.0000      0.2989      0.0098
        49        -0.9551      0.0143     -0.0608      0.6287     -0.0001      0.0000
        50        -0.0001     -0.0000     -0.0000      0.0001      0.5315     -0.1975
        51        -0.5673      0.0624     -0.0083      0.0351      0.0000      0.0000
        52         2.2150      0.0236     -0.0562     -1.0497     -0.0000      0.0000
        53        -0.0002     -0.0000      0.0000     -0.0000     -0.0835      0.0211
        54        -0.0000      0.0000     -0.0000      0.0001      0.2241     -0.0223
        55         0.8971     -0.0770     -0.0743      0.1716      0.0000      0.0000
        56        -0.0000      0.0000     -0.0000      0.0000      0.1614      0.0025
        57        -0.4181      0.3102      0.0193     -0.8102      0.0000      0.0000
        58         0.0000      0.0000      0.0000      0.0000      0.3686     -0.0987
        59        -0.0000     -0.0000     -0.0000      0.0001     -0.1387      0.1507
        60         0.0025     -0.6712      0.0071      0.9400     -0.0000     -0.0000
        61         0.0001     -0.0000      0.0000      0.0001      0.8327     -0.0631
        62         0.6771      0.0132     -0.0182     -0.4096      0.0000     -0.0000
        63         0.6445     -0.1183      0.0019     -0.1808     -0.0000      0.0000
        64         0.0000     -0.0000      0.0000     -0.0000      0.2089     -0.0988
        65         0.0000     -0.0000      0.0000     -0.0000      0.1792      0.0045
        66         0.0001      0.0000      0.0000      0.0001      0.6692     -0.0492
        67        -1.2404     -0.0795     -0.0750     -0.5054     -0.0000      0.0000
        68        -0.0000     -0.0000     -0.0000      0.0000      0.4033     -0.0221
        69        -0.6785     -0.0078     -0.0146      0.2985     -0.0000     -0.0000
        70         0.0000     -0.0000     -0.0000      0.0000     -0.4149      0.0205
        71         0.0000     -0.0000      0.0000      0.0000      0.1496     -0.0055
        72         0.0001      0.0000     -0.0000     -0.0000     -0.1244      0.0136
        73         0.2237     -0.0529      0.0097      0.0850     -0.0000      0.0000
        74         0.0000     -0.0000     -0.0000      0.0000     -0.4013      0.1456
        75        -0.2964     -0.0541      0.0266      0.1815     -0.0000     -0.0000
        76        -0.9133      0.2239      0.0516     -0.0661      0.0000      0.0000
        77        -0.8099      0.1585      0.0093     -0.4329      0.0000     -0.0000
        78         0.0001     -0.0000      0.0000      0.0000     -0.2199     -0.0999
        79        -0.6143      0.0601      0.0285      0.7546     -0.0000     -0.0000
        80         0.0000     -0.0000      0.0000     -0.0001     -0.2517      0.0390
        81        -0.0393      0.0036     -0.0002     -0.0195     -0.0916     -0.0732
        82         1.2016     -0.1093      0.0068      0.5953     -0.0029     -0.0024
        83         0.7917      0.0215     -0.0697      0.3250      0.0000      0.0000
        84         0.6164     -0.4276     -0.0645     -1.0357     -0.0000      0.0000
        85         0.0000     -0.0000     -0.0000     -0.0000      0.0607      0.1111
        86         1.0869      0.0205      0.0875      0.3298     -0.0000     -0.0000
        87        -0.0000     -0.0000     -0.0000     -0.0000      0.3565     -0.0482
        88        -0.0001     -0.0000     -0.0000     -0.0001     -0.1460      0.0607
        89        -0.1412      0.1904      0.0119      0.3561      0.0000      0.0000
        90         1.5181     -0.1189      0.0307      0.9441     -0.0001      0.0000
        91        -0.0001      0.0000     -0.0000     -0.0000     -0.2618      0.0102
[...]
 Alpha virt. eigenvalues --    2.34315   2.34698   2.35189   2.35733   2.35890
 Alpha virt. eigenvalues --    2.37057   2.37071   2.38819   2.38854   2.39051
 Alpha virt. eigenvalues --    2.39222   2.39429   2.39644   2.40307   2.40597
 Alpha virt. eigenvalues --    2.40609   2.40710   2.41110   2.41425   2.42302
 Alpha virt. eigenvalues --    2.42339   2.42569   2.42680   2.43169   2.43189
 Alpha virt. eigenvalues --    2.44260   2.44514   2.45286   2.45342   2.45640
 Alpha virt. eigenvalues --    2.46215   2.46707   2.47015   2.47238   2.48235
 Alpha virt. eigenvalues --    2.48283   2.48548   2.49125   2.49304   2.49512
 Alpha virt. eigenvalues --    2.50013   2.51281   2.51438   2.52021   2.52090
 Alpha virt. eigenvalues --    2.52793   2.52801   2.52876   2.53664   2.53685
 Alpha virt. eigenvalues --    2.54071   2.54427   2.54427   2.54886   2.54905
 Alpha virt. eigenvalues --    2.55563   2.55675   2.56205   2.56583   2.56792
 Alpha virt. eigenvalues --    2.56845   2.57289   2.57313   2.58319   2.58332
 Alpha virt. eigenvalues --    2.58475   2.59218   2.59614   2.59778   2.59825
 Alpha virt. eigenvalues --    2.60158   2.60252   2.60254   2.61017   2.61192
 Alpha virt. eigenvalues --    2.61225   2.61515   2.61546   2.62066   2.62462
 Alpha virt. eigenvalues --    2.62515   2.62748   2.62753   2.63067   2.63443
 Alpha virt. eigenvalues --    2.63816   2.64009   2.64055   2.64838   2.65350
 Alpha virt. eigenvalues --    2.65534   2.65576   2.66213   2.66993   2.67125
 Alpha virt. eigenvalues --    2.67274   2.67565   2.67896   2.68225   2.68268
 Alpha virt. eigenvalues --    2.68513   2.69472   2.69860   2.69909   2.70013
 Alpha virt. eigenvalues --    2.70534   2.71175   2.71379   2.71797   2.72431
 Alpha virt. eigenvalues --    2.72783   2.73375   2.73400   2.74225   2.74513
 Alpha virt. eigenvalues --    2.74701   2.74941   2.75610   2.76033   2.76112
 Alpha virt. eigenvalues --    2.76373   2.76672   2.76854   2.77220   2.77579
 Alpha virt. eigenvalues --    2.77710   2.77816   2.77983   2.78102   2.78404
 Alpha virt. eigenvalues --    2.78546   2.78976   2.79343   2.79562   2.79597
 Alpha virt. eigenvalues --    2.80471   2.80599   2.80827   2.81286   2.81380
 Alpha virt. eigenvalues --    2.81821   2.82483   2.83047   2.83325   2.84246
 Alpha virt. eigenvalues --    2.84568   2.84989   2.85178   2.85436   2.85629
 Alpha virt. eigenvalues --    2.85659   2.86845   2.86883   2.87193   2.87381
 Alpha virt. eigenvalues --    2.87541   2.87595   2.88171   2.88336   2.89584
 Alpha virt. eigenvalues --    2.90098   2.90441   2.90468   2.90725   2.91281
 Alpha virt. eigenvalues --    2.91293   2.91667   2.91729   2.92091   2.92137
 Alpha virt. eigenvalues --    2.92561   2.92633   2.93468   2.93492   2.93878
 Alpha virt. eigenvalues --    2.94505   2.94580   2.94816   2.95078   2.95481
 Alpha virt. eigenvalues --    2.96674   2.96677   2.96940   2.97730   2.97800
 Alpha virt. eigenvalues --    2.98199   2.98553   2.98649   2.98880   3.00227
 Alpha virt. eigenvalues --    3.00250   3.00431   3.01088   3.01490   3.02244
 Alpha virt. eigenvalues --    3.02932   3.03274   3.04097   3.04294   3.04913
 Alpha virt. eigenvalues --    3.05005   3.05241   3.05281   3.05326   3.05560
 Alpha virt. eigenvalues --    3.06103   3.06493   3.06578   3.06841   3.07256
 Alpha virt. eigenvalues --    3.07797   3.08091   3.08134   3.08317   3.08340
 Alpha virt. eigenvalues --    3.08642   3.09756   3.10372   3.10434   3.10991
 Alpha virt. eigenvalues --    3.11215   3.11491   3.11689   3.11722   3.12044
 Alpha virt. eigenvalues --    3.12059   3.12327   3.12733   3.13099   3.13501
 Alpha virt. eigenvalues --    3.14067   3.14078   3.14307   3.14432   3.14796
 Alpha virt. eigenvalues --    3.14807   3.15488   3.15628   3.15872   3.16436
 Alpha virt. eigenvalues --    3.16762   3.17542   3.18041   3.18185   3.18462
 Alpha virt. eigenvalues --    3.18517   3.18521   3.18685   3.19256   3.19323
 Alpha virt. eigenvalues --    3.19649   3.20133   3.20588   3.20715   3.21025
 Alpha virt. eigenvalues --    3.21789   3.22024   3.22436   3.22522   3.22794
 Alpha virt. eigenvalues --    3.22795   3.23076   3.23182   3.23519   3.23791
 Alpha virt. eigenvalues --    3.23842   3.24459   3.24662   3.25188   3.25244
 Alpha virt. eigenvalues --    3.25482   3.26026   3.26468   3.26962   3.27327
 Alpha virt. eigenvalues --    3.27478   3.27989   3.28059   3.28101   3.28543
 Alpha virt. eigenvalues --    3.28626   3.28907   3.29036   3.29367   3.29775
 Alpha virt. eigenvalues --    3.29883   3.30212   3.30280   3.30629   3.30719
 Alpha virt. eigenvalues --    3.31152   3.31304   3.31613   3.31902   3.31986
 Alpha virt. eigenvalues --    3.32105   3.32386   3.33334   3.33392   3.33393
 Alpha virt. eigenvalues --    3.33654   3.33845   3.33864   3.34046   3.34737
 Alpha virt. eigenvalues --    3.34829   3.35278   3.35598   3.35881   3.35964
 Alpha virt. eigenvalues --    3.36186   3.36552   3.36762   3.36925   3.37057
 Alpha virt. eigenvalues --    3.37246   3.37493   3.38069   3.38296   3.38555
 Alpha virt. eigenvalues --    3.38779   3.39575   3.39858   3.40079   3.40273
 Alpha virt. eigenvalues --    3.40297   3.40706   3.41338   3.41343   3.41587
 Alpha virt. eigenvalues --    3.41883   3.42340   3.42404   3.42405   3.43459
 Alpha virt. eigenvalues --    3.43757   3.43878   3.44217   3.44231   3.45364
 Alpha virt. eigenvalues --    3.45409   3.45825   3.46341   3.46690   3.47686
 Alpha virt. eigenvalues --    3.47904   3.48234   3.48969   3.49232   3.50201
 Alpha virt. eigenvalues --    3.50570   3.50823   3.50927   3.51080   3.51313
 Alpha virt. eigenvalues --    3.51352   3.51931   3.52121   3.52639   3.52972
 Alpha virt. eigenvalues --    3.53880   3.53991   3.54278   3.54659   3.55210
 Alpha virt. eigenvalues --    3.55248   3.56334   3.56347   3.56667   3.56712
 Alpha virt. eigenvalues --    3.57090   3.57134   3.57574   3.57983   3.58121
 Alpha virt. eigenvalues --    3.58508   3.58628   3.59216   3.59881   3.60166
 Alpha virt. eigenvalues --    3.60269   3.61094   3.61435   3.61960   3.62202
 Alpha virt. eigenvalues --    3.62434   3.62505   3.62916   3.63116   3.63545
 Alpha virt. eigenvalues --    3.64075   3.64402   3.65089   3.65271   3.66419
 Alpha virt. eigenvalues --    3.66442   3.66600   3.66860   3.67778   3.68134
 Alpha virt. eigenvalues --    3.69357   3.69519   3.70577   3.70796   3.71388
 Alpha virt. eigenvalues --    3.71713   3.71885   3.73034   3.73156   3.73192
 Alpha virt. eigenvalues --    3.73936   3.74111   3.74494   3.75405   3.75644
 Alpha virt. eigenvalues --    3.76302   3.76458   3.76560   3.77141   3.77545
 Alpha virt. eigenvalues --    3.77874   3.78619   3.79134   3.79802   3.80533
 Alpha virt. eigenvalues --    3.81561   3.81807   3.82010   3.82418   3.83876
 Alpha virt. eigenvalues --    3.83979   3.84422   3.85049   3.85525   3.85633
 Alpha virt. eigenvalues --    3.86607   3.87346   3.87620   3.87654   3.87678
 Alpha virt. eigenvalues --    3.88663   3.88758   3.89249   3.89998   3.90310
 Alpha virt. eigenvalues --    3.90736   3.90915   3.91423   3.91903   3.91943
 Alpha virt. eigenvalues --    3.92856   3.93243   3.94355   3.94798   3.95669
 Alpha virt. eigenvalues --    3.95849   3.97323   3.97465   3.98347   3.98634
 Alpha virt. eigenvalues --    3.99281   3.99316   3.99997   4.00844   4.01107
 Alpha virt. eigenvalues --    4.01445   4.02395   4.02405   4.03336   4.03599
 Alpha virt. eigenvalues --    4.04030   4.04633   4.05080   4.06049   4.08290
 Alpha virt. eigenvalues --    4.08578   4.09197   4.09393   4.09646   4.10093
 Alpha virt. eigenvalues --    4.12441   4.12453   4.13605   4.13758   4.14820
 Alpha virt. eigenvalues --    4.15184   4.15185   4.15231   4.15441   4.15952
 Alpha virt. eigenvalues --    4.16715   4.17401   4.18167   4.19695   4.19769
 Alpha virt. eigenvalues --    4.19924   4.20862   4.21218   4.21746   4.21961
 Alpha virt. eigenvalues --    4.23165   4.23979   4.24579   4.24794   4.24866
 Alpha virt. eigenvalues --    4.25487   4.25596   4.26418   4.26635   4.27549
 Alpha virt. eigenvalues --    4.28415   4.28471   4.29478   4.29804   4.30809
 Alpha virt. eigenvalues --    4.30919   4.32157   4.32511   4.32558   4.33260
 Alpha virt. eigenvalues --    4.33858   4.34809   4.34941   4.35151   4.35725
 Alpha virt. eigenvalues --    4.35784   4.36609   4.36841   4.37597   4.38273
 Alpha virt. eigenvalues --    4.38368   4.38370   4.39757   4.39988   4.40178
 Alpha virt. eigenvalues --    4.41408   4.41548   4.42431   4.42462   4.43598
 Alpha virt. eigenvalues --    4.43678   4.43692   4.44359   4.44500   4.46021
 Alpha virt. eigenvalues --    4.47260   4.47424   4.47481   4.47955   4.48068
 Alpha virt. eigenvalues --    4.48261   4.48620   4.49529   4.49877   4.50156
 Alpha virt. eigenvalues --    4.51428   4.51839   4.52226   4.53037   4.53645
 Alpha virt. eigenvalues --    4.54014   4.54460   4.54892   4.55263   4.55890
 Alpha virt. eigenvalues --    4.57339   4.57504   4.58798   4.60142   4.61442
 Alpha virt. eigenvalues --    4.61614   4.63324   4.63379   4.64326   4.64395
 Alpha virt. eigenvalues --    4.65522   4.65638   4.67093   4.68079   4.68179
 Alpha virt. eigenvalues --    4.68414   4.70831   4.71680   4.72053   4.73142
 Alpha virt. eigenvalues --    4.73188   4.74056   4.74284   4.74428   4.74914
 Alpha virt. eigenvalues --    4.76328   4.77905   4.80211   4.80614   4.81884
 Alpha virt. eigenvalues --    4.82505   4.83046   4.83743   4.85919   4.86326
 Alpha virt. eigenvalues --    4.87318   4.89233   4.90629   4.91220   4.91969
 Alpha virt. eigenvalues --    4.92805   4.95152   4.97605   4.98074   4.98340
 Alpha virt. eigenvalues --    4.99001   5.00054   5.00187   5.01525   5.02702
 Alpha virt. eigenvalues --    5.03024   5.03912   5.04389   5.06264   5.09672
 Alpha virt. eigenvalues --    5.09988   5.11924   5.12020   5.13831   5.14225
 Alpha virt. eigenvalues --    5.15593   5.17636   5.18155   5.19534   5.19559
 Alpha virt. eigenvalues --    5.20159   5.21329   5.22146   5.23487   5.24156
 Alpha virt. eigenvalues --    5.25824   5.27150   5.31530   5.31548   5.33298
 Alpha virt. eigenvalues --    5.33859   5.35237   5.35622   5.41373   5.42856
 Alpha virt. eigenvalues --    5.52617   5.56570   5.61769   5.62265   5.68872
 Alpha virt. eigenvalues --    5.69481   5.70859   5.71693  22.41084  22.48740
 Alpha virt. eigenvalues --   22.48859  22.50369  22.50584  22.51708  22.51845
 Alpha virt. eigenvalues --   22.51952  22.54924  22.55106  22.59435  22.59501
 Alpha virt. eigenvalues --   22.62201  22.62338  22.62888  22.66156  22.66683
 Alpha virt. eigenvalues --   22.67900  22.68929  22.69394  22.70705  22.77812
 Alpha virt. eigenvalues --   22.79096  22.79765  22.80344  22.80674  22.85360
 Alpha virt. eigenvalues --   22.86776  22.88150  22.88650  22.89273  22.90657
 Alpha virt. eigenvalues --   22.94993  22.95825  23.12406  23.17452  23.22292
 Alpha virt. eigenvalues --   23.24136  23.40950  23.40954
          Condensed to atoms (all electrons):
 Mulliken charges:
               1
     1  C   -0.235770
     2  C   -0.211670
     3  C   -0.206707
     4  C    0.023729
     5  C   -0.087698
     6  C    0.157484
     7  C   -0.179483
     8  C   -0.234067
     9  C    0.061546
    10  C   -0.228664
    11  C   -0.118903
    12  C   -0.263956
    13  C    0.095550
    14  C   -0.198312
    15  C   -0.164516
    16  C   -0.164516
    17  C   -0.198312
    18  C    0.095550
    19  C   -0.263956
    20  C   -0.118903
    21  C   -0.228663
    22  C    0.061544
    23  C   -0.234066
    24  C   -0.179484
    25  C   -0.087698
    26  C    0.157484
    27  C   -0.444923
    28  C   -0.464660
    29  C   -0.462356
    30  C   -0.235770
    31  C   -0.211670
    32  C   -0.206706
    33  C    0.023728
    34  C   -0.444921
    35  C   -0.464661
    36  C   -0.462357
    37  C   -0.430132
    38  C   -0.426913
    39  C   -0.426913
    40  C   -0.430132
    41  H    0.111193
    42  H    0.126924
    43  H    0.124169
    44  H    0.111706
    45  H    0.128047
    46  H    0.141575
    47  H    0.154045
    48  H    0.151210
    49  H    0.139891
    50  H    0.158840
    51  H    0.143721
    52  H    0.144776
    53  H    0.142239
    54  H    0.142239
    55  H    0.144776
    56  H    0.143721
    57  H    0.158840
    58  H    0.139891
    59  H    0.151210
    60  H    0.154046
    61  H    0.139204
    62  H    0.139422
    63  H    0.138193
    64  H    0.140296
    65  H    0.137850
    66  H    0.139007
    67  H    0.158885
    68  H    0.156176
    69  H    0.158970
    70  H    0.126924
    71  H    0.111193
    72  H    0.124169
    73  H    0.111706
    74  H    0.128047
    75  H    0.141575
    76  H    0.139422
    77  H    0.138192
    78  H    0.139204
    79  H    0.140296
    80  H    0.137850
    81  H    0.139007
    82  H    0.158885
    83  H    0.156176
    84  H    0.158970
    85  H    0.153543
    86  H    0.159428
    87  H    0.153915
    88  H    0.153802
    89  H    0.159670
    90  H    0.153725
    91  H    0.153725
    92  H    0.153802
    93  H    0.159670
    94  H    0.159429
    95  H    0.153915
    96  H    0.153543
 Sum of Mulliken charges =  -0.00000
 Mulliken charges with hydrogens summed into heavy atoms:
               1
     1  C    0.002346
     2  C    0.024204
     3  C    0.062915
     4  C    0.023729
     5  C   -0.087698
     6  C    0.157484
     7  C   -0.025438
     8  C   -0.082858
     9  C    0.061546
    10  C   -0.088773
    11  C    0.039937
    12  C   -0.120235
    13  C    0.095550
    14  C   -0.053535
    15  C   -0.022277
    16  C   -0.022277
    17  C   -0.053536
    18  C    0.095550
    19  C   -0.120234
    20  C    0.039937
    21  C   -0.088773
    22  C    0.061544
    23  C   -0.082856
    24  C   -0.025438
    25  C   -0.087698
    26  C    0.157484
    27  C   -0.028104
    28  C   -0.047507
    29  C    0.011675
    30  C    0.002346
    31  C    0.024205
    32  C    0.062915
    33  C    0.023728
    34  C   -0.028104
    35  C   -0.047507
    36  C    0.011674
    37  C    0.036754
    38  C    0.040285
    39  C    0.040285
    40  C    0.036754
 Electronic spatial extent (au):  <R**2>=         104475.5358
 Charge=             -0.0000 electrons
 Dipole moment (field-independent basis, Debye):
    X=              0.0000    Y=             -0.0000    Z=             -0.5437  Tot=              0.5437
 Quadrupole moment (field-independent basis, Debye-Ang):
   XX=           -144.4501   YY=           -224.5289   ZZ=           -261.8801
   XY=            -16.0992   XZ=             -0.0002   YZ=              0.0000
 Traceless Quadrupole moment (field-independent basis, Debye-Ang):
   XX=             65.8363   YY=            -14.2426   ZZ=            -51.5937
   XY=            -16.0992   XZ=             -0.0002   YZ=              0.0000
 Octapole moment (field-independent basis, Debye-Ang**2):
  XXX=              0.0062  YYY=              0.0002  ZZZ=             -7.2251  XYY=              0.0002
  XXY=             -0.0005  XXZ=            -95.8329  XZZ=              0.0001  YZZ=             -0.0000
  YYZ=              0.4533  XYZ=             12.5699
 Hexadecapole moment (field-independent basis, Debye-Ang**3):
 XXXX=        -113244.8451 YYYY=          -3997.5335 ZZZZ=           -842.2261 XXXY=          -2077.8310
 XXXZ=             -0.0360 YYYX=           -230.0109 YYYZ=             -0.0001 ZZZX=             -0.0017
 ZZZY=             -0.0000 XXYY=         -22729.6989 XXZZ=         -24275.7916 YYZZ=           -833.5924
 XXYZ=              0.0040 YYXZ=              0.0000 ZZXY=            -33.1521
 N-N= 3.637152187714D+03 E-N=-1.088217070749D+04  KE= 1.547308069897D+03
 Unable to Open any file for archive entry.
 1\1\GINC-CN02\SP\RPBE1PBE TD-FC\def2TZVP\C40H56\2100011873\05-Nov-2023
 \0\\# td=(nstates=150) PBE1PBE/def2TZVP scrf(smd, solvent=ethanol)\\B-
 1\\0,1\C,0,-13.193247,-1.96518,0.357514\C,0,-14.150234,-1.366297,-0.66
 6837\C,0,-14.19793,0.145886,-0.469985\C,0,-12.839886,0.781119,-0.26594
 2\C,0,-11.699193,0.069117,-0.020535\C,0,-11.734254,-1.463294,0.19794\C
 ,0,-10.43464,0.808638,0.027915\C,0,-9.147698,0.368486,0.051934\C,0,-7.
 970978,1.218813,0.064023\C,0,-6.738479,0.618773,0.069992\C,0,-5.445845
 ,1.238015,0.078209\C,0,-4.280328,0.525977,0.08121\C,0,-2.942601,1.0636
 27,0.086009\C,0,-1.885522,0.185039,0.0869\C,0,-0.488362,0.47987,0.0883
 82\C,0,0.488364,-0.479879,0.088381\C,0,1.885523,-0.185049,0.086901\C,0
 ,2.942603,-1.063636,0.08601\C,0,4.28033,-0.525984,0.08121\C,0,5.445847
 ,-1.238022,0.078205\C,0,6.73848,-0.618778,0.069986\C,0,7.97098,-1.2188
 16,0.064016\C,0,9.147699,-0.368486,0.051926\C,0,10.434641,-0.808636,0.
 027911\C,0,11.699193,-0.069112,-0.020539\C,0,11.734248,1.463299,0.1979
 35\C,0,-11.0146,-1.853868,1.513234\C,0,-11.087577,-2.209256,-0.996377\
 C,0,-12.878927,2.293643,-0.398885\C,0,13.193238,1.965187,0.357525\C,0,
 14.150237,1.366308,-0.666817\C,0,14.197934,-0.145875,-0.469969\C,0,12.
 839889,-0.781111,-0.265939\C,0,11.014576,1.85387,1.51322\C,0,11.087582
 ,2.209257,-0.996389\C,0,12.878932,-2.293635,-0.398883\C,0,8.156563,-2.
 71718,0.068498\C,0,2.769507,-2.564242,0.088788\C,0,-2.769504,2.564233,
 0.08879\C,0,-8.156557,2.717177,0.068503\H,0,-13.55224,-1.704444,1.3637
 22\H,0,-13.191791,-3.061587,0.302962\H,0,-15.153148,-1.798268,-0.56305
 3\H,0,-13.813091,-1.597755,-1.685187\H,0,-14.836732,0.392637,0.395545\
 H,0,-14.68517,0.631298,-1.328645\H,0,-10.553209,1.886254,-0.000126\H,0
 ,-8.931571,-0.694424,0.048253\H,0,-6.727188,-0.472294,0.066595\H,0,-5.
 39419,2.323329,0.080545\H,0,-4.354073,-0.562407,0.078511\H,0,-2.136434
 ,-0.876729,0.085263\H,0,-0.172471,1.5217,0.088524\H,0,0.172472,-1.5217
 09,0.088521\H,0,2.136435,0.87672,0.085267\H,0,4.354074,0.5624,0.078514
 \H,0,5.394193,-2.323335,0.080538\H,0,6.727188,0.472289,0.066588\H,0,8.
 931568,0.694423,0.04824\H,0,10.553213,-1.886252,-0.000123\H,0,-11.4165
 6,-1.280584,2.356412\H,0,-11.183965,-2.918133,1.720013\H,0,-9.93616,-1
 .690871,1.488587\H,0,-10.062275,-1.88498,-1.187807\H,0,-11.067226,-3.2
 88779,-0.800274\H,0,-11.653135,-2.045583,-1.919919\H,0,-13.913764,2.64
 896,-0.350635\H,0,-12.32451,2.809583,0.392139\H,0,-12.468777,2.633235,
 -1.360075\H,0,13.19178,3.061594,0.302976\H,0,13.552222,1.70445,1.36373
 7\H,0,15.153149,1.798281,-0.563022\H,0,13.813104,1.597768,-1.68517\H,0
 ,14.836727,-0.392627,0.395567\H,0,14.685183,-0.631285,-1.328625\H,0,11
 .183932,2.918136,1.719999\H,0,9.936137,1.690867,1.488558\H,0,11.416527
 ,1.280589,2.356403\H,0,10.062283,1.884978,-1.18783\H,0,11.067226,3.288
 781,-0.800288\H,0,11.65315,2.045585,-1.919926\H,0,13.913771,-2.648951,
 -0.350639\H,0,12.324521,-2.809577,0.392144\H,0,12.468777,-2.633229,-1.
 360071\H,0,8.744087,-3.036457,0.93873\H,0,7.209146,-3.257946,0.093047\
 H,0,8.704221,-3.047232,-0.823677\H,0,3.248036,-3.011075,0.969534\H,0,1
 .72147,-2.868026,0.092705\H,0,3.242385,-3.013831,-0.793611\H,0,-3.2423
 96,3.013825,-0.7936\H,0,-3.248019,3.011063,0.969546\H,0,-1.721466,2.86
 8016,0.092692\H,0,-7.20914,3.257941,0.093061\H,0,-8.704208,3.04723,-0.
 823677\H,0,-8.744089,3.036455,0.93873\\Version=ES64L-G16RevC.02\State=
 1-A\HF=-1556.5518451\RMSD=5.009e-09\PG=C01 [X(C40H56)]\\@
 The archive entry for this job was punched.


     ON THE SURVIVAL OF THE FITTEST -
 "STRONG REPRESENTATIVES FROM EACH PAST ERA THRIVE TODAY,
 SUCH AS PROGRAMMING IN THE THIRTY YEAR OLD LANGUAGE KNOWN
 AS FORTRAN, AND EVEN IN THE ANCIENT SCRIPT KNOWN AS DIRECT
 MACHINE CODE. SOME PEOPLE MIGHT LOOK ON SUCH RELICS AS LIVING
 FOSSILS; OTHERS WOULD POINT OUT THAT EVEN A VERY OLD SPECIES
 MIGHT STILL BE FILLING A PARTICULAR ECOLOGICAL NICHE."
     -- ALAN KAY, SCI.AM. SEPTEMBER 1984
 Job cpu time:       8 days 13 hours  9 minutes 32.2 seconds.
 Elapsed time:       0 days  6 hours  2 minutes 20.6 seconds.
 File lengths (MBytes):  RWF=  94400 Int=      0 D2E=      0 Chk=  10128 Scr=     32
 Normal termination of Gaussian 16 at Sun Nov  5 22:33:31 2023.
