 Entering Gaussian System, Link 0=g16
 Initial command:
 /nfs-share/home/2100011873/Gaussian16_AVX2/g16/l1.exe "/nfs-share/home/2100011873/GaussTmp/Gau-150015.inp" -scrdir="/nfs-share/home/2100011873/GaussTmp/"
 Entering Link 1 = /nfs-share/home/2100011873/Gaussian16_AVX2/g16/l1.exe PID=    150016.
  
 Copyright (c) 1988-2021, Gaussian, Inc.  All Rights Reserved.
  
 This is part of the Gaussian(R) 16 program.  It is based on
 the Gaussian(R) 09 system (copyright 2009, Gaussian, Inc.),
 the Gaussian(R) 03 system (copyright 2003, Gaussian, Inc.),
 the Gaussian(R) 98 system (copyright 1998, Gaussian, Inc.),
 the Gaussian(R) 94 system (copyright 1995, Gaussian, Inc.),
 the Gaussian 92(TM) system (copyright 1992, Gaussian, Inc.),
 the Gaussian 90(TM) system (copyright 1990, Gaussian, Inc.),
 the Gaussian 88(TM) system (copyright 1988, Gaussian, Inc.),
 the Gaussian 86(TM) system (copyright 1986, Carnegie Mellon
 University), and the Gaussian 82(TM) system (copyright 1983,
 Carnegie Mellon University). Gaussian is a federally registered
 trademark of Gaussian, Inc.
  
 This software contains proprietary and confidential information,
 including trade secrets, belonging to Gaussian, Inc.
  
 This software is provided under written license and may be
 used, copied, transmitted, or stored only in accord with that
 written license.
  
 The following legend is applicable only to US Government
 contracts under FAR:
  
                    RESTRICTED RIGHTS LEGEND
  
 Use, reproduction and disclosure by the US Government is
 subject to restrictions as set forth in subparagraphs (a)
 and (c) of the Commercial Computer Software - Restricted
 Rights clause in FAR 52.227-19.
  
 Gaussian, Inc.
 340 Quinnipiac St., Bldg. 40, Wallingford CT 06492
  
  
 ---------------------------------------------------------------
 Warning -- This program may not be used in any manner that
 competes with the business of Gaussian, Inc. or will provide
 assistance to any competitor of Gaussian, Inc.  The licensee
 of this program is prohibited from giving any competitor of
 Gaussian, Inc. access to this program.  By using this program,
 the user acknowledges that Gaussian, Inc. is engaged in the
 business of creating and licensing software in the field of
 computational chemistry and represents and warrants to the
 licensee that it is not a competitor of Gaussian, Inc. and that
 it will not use this program in any manner prohibited above.
 ---------------------------------------------------------------
  

 Cite this work as:
 Gaussian 16, Revision C.02,
 M. J. Frisch, G. W. Trucks, H. B. Schlegel, G. E. Scuseria, 
 M. A. Robb, J. R. Cheeseman, G. Scalmani, V. Barone, 
 G. A. Petersson, H. Nakatsuji, X. Li, M. Caricato, A. V. Marenich, 
 J. Bloino, B. G. Janesko, R. Gomperts, B. Mennucci, H. P. Hratchian, 
 J. V. Ortiz, A. F. Izmaylov, J. L. Sonnenberg, D. Williams-Young, 
 F. Ding, F. Lipparini, F. Egidi, J. Goings, B. Peng, A. Petrone, 
 T. Henderson, D. Ranasinghe, V. G. Zakrzewski, J. Gao, N. Rega, 
 G. Zheng, W. Liang, M. Hada, M. Ehara, K. Toyota, R. Fukuda, 
 J. Hasegawa, M. Ishida, T. Nakajima, Y. Honda, O. Kitao, H. Nakai, 
 T. Vreven, K. Throssell, J. A. Montgomery, Jr., J. E. Peralta, 
 F. Ogliaro, M. J. Bearpark, J. J. Heyd, E. N. Brothers, K. N. Kudin, 
 V. N. Staroverov, T. A. Keith, R. Kobayashi, J. Normand, 
 K. Raghavachari, A. P. Rendell, J. C. Burant, S. S. Iyengar, 
 J. Tomasi, M. Cossi, J. M. Millam, M. Klene, C. Adamo, R. Cammi, 
 J. W. Ochterski, R. L. Martin, K. Morokuma, O. Farkas, 
 J. B. Foresman, and D. J. Fox, Gaussian, Inc., Wallingford CT, 2019.
 
 ******************************************
 Gaussian 16:  ES64L-G16RevC.02  7-Dec-2021
                 4-Nov-2023 
 ******************************************
 %nprocshared=36
 Will use up to   36 processors via shared memory.
 %mem=128GB
 --------------------------------------------------------------
 # td=(nstates=150) PBE1PBE/def2TZVP scrf(smd, solvent=ethanol)
 --------------------------------------------------------------
 1/38=1,172=1/1;
 2/12=2,17=6,18=5,40=1/2;
 3/5=44,7=101,11=9,25=1,30=1,70=32201,72=4,74=-13/1,2,3,8;
 4//1;
 5/5=2,38=5,53=4/2;
 8/6=1,10=1,108=150/1;
 9/41=150,42=1,70=2/14;
 6/7=2,8=2,9=2,10=2/1;
 99/5=1,9=1/99;
 ---
 A-1
 ---
 Symbolic Z-matrix:
 Charge =  1 Multiplicity = 1
 C                    -1.25921   0.2167   -0.03937 
 C                     0.        0.82894  -0.00012 
 C                     1.25921   0.21668   0.03925 
 N                     2.43346   0.90485   0.146 
 S                    -1.55756  -1.51215   0.05388 
 C                    -3.29767  -1.25882  -0.02728 
 C                    -3.5899    0.10887  -0.1183 
 N                    -2.43347   0.90486  -0.14611 
 S                     1.55755  -1.51217  -0.05392 
 C                     3.29766  -1.25885   0.0273 
 C                     3.5899    0.10884   0.11825 
 C                    -4.30157  -2.22442  -0.00362 
 C                    -5.62465  -1.79213  -0.06698 
 C                    -5.92564  -0.42569  -0.14901 
 C                    -4.92039   0.53827  -0.17427 
 C                     4.30156  -2.22445   0.00372 
 C                     5.62464  -1.79215   0.06707 
 C                     5.92564  -0.42571   0.14902 
 C                     4.92038   0.53826   0.17421 
 C                    -2.51035   2.37353  -0.25723 
 C                    -2.56643   3.07379   1.10152 
 C                     2.51034   2.3735    0.2573 
 C                     2.56651   3.07393  -1.10136 
 H                     0.00001   1.90904  -0.00021 
 H                    -4.06058  -3.28031   0.06397 
 H                    -6.42724  -2.52213  -0.04909 
 H                    -6.96206  -0.10651  -0.19134 
 H                    -5.17675   1.59021  -0.22813 
 H                     4.06057  -3.28035  -0.06382 
 H                     6.42723  -2.52216   0.04923 
 H                     6.96205  -0.10653   0.19134 
 H                     5.17673   1.5902    0.22802 
 H                    -1.65749   2.70849  -0.85213 
 H                    -3.39812   2.59717  -0.85222 
 H                    -3.44119   2.75206   1.67457 
 H                    -1.67384   2.86336   1.69908 
 H                    -2.63423   4.15636   0.9543 
 H                     1.65744   2.70838   0.85218 
 H                     3.39807   2.59706   0.85237 
 H                     3.44133   2.75234  -1.67437 
 H                     1.67399   2.86351  -1.69903 
 H                     2.63421   4.15649  -0.95399 
 
                          Input orientation:                          
 ---------------------------------------------------------------------
 Center     Atomic      Atomic             Coordinates (Angstroms)
 Number     Number       Type             X           Y           Z
 ---------------------------------------------------------------------
      1          6           0       -1.259214    0.216698   -0.039367
      2          6           0        0.000003    0.828935   -0.000122
      3          6           0        1.259209    0.216684    0.039249
      4          7           0        2.433464    0.904848    0.145998
      5         16           0       -1.557561   -1.512152    0.053882
      6          6           0       -3.297665   -1.258824   -0.027283
      7          6           0       -3.589904    0.108866   -0.118299
      8          7           0       -2.433474    0.904863   -0.146106
      9         16           0        1.557549   -1.512171   -0.053923
     10          6           0        3.297657   -1.258850    0.027304
     11          6           0        3.589900    0.108842    0.118251
     12          6           0       -4.301571   -2.224422   -0.003624
     13          6           0       -5.624645   -1.792125   -0.066975
     14          6           0       -5.925643   -0.425687   -0.149009
     15          6           0       -4.920394    0.538274   -0.174272
     16          6           0        4.301563   -2.224450    0.003718
     17          6           0        5.624635   -1.792149    0.067066
     18          6           0        5.925635   -0.425707    0.149021
     19          6           0        4.920384    0.538258    0.174213
     20          6           0       -2.510348    2.373529   -0.257226
     21          6           0       -2.566433    3.073786    1.101522
     22          6           0        2.510339    2.373497    0.257299
     23          6           0        2.566508    3.073929   -1.101357
     24          1           0        0.000014    1.909040   -0.000214
     25          1           0       -4.060576   -3.280313    0.063971
     26          1           0       -6.427238   -2.522132   -0.049094
     27          1           0       -6.962056   -0.106514   -0.191342
     28          1           0       -5.176748    1.590213   -0.228130
     29          1           0        4.060566   -3.280345   -0.063815
     30          1           0        6.427230   -2.522156    0.049231
     31          1           0        6.962048   -0.106532    0.191339
     32          1           0        5.176733    1.590201    0.228019
     33          1           0       -1.657488    2.708489   -0.852128
     34          1           0       -3.398115    2.597174   -0.852215
     35          1           0       -3.441185    2.752064    1.674572
     36          1           0       -1.673838    2.863356    1.699082
     37          1           0       -2.634230    4.156364    0.954302
     38          1           0        1.657436    2.708379    0.852183
     39          1           0        3.398074    2.597059    0.852370
     40          1           0        3.441334    2.752344   -1.674368
     41          1           0        1.673988    2.863510   -1.699033
     42          1           0        2.634214    4.156493   -0.953990
 ---------------------------------------------------------------------
                    Distance matrix (angstroms):
                    1          2          3          4          5
     1  C    0.000000
     2  C    1.400715   0.000000
     3  C    2.519650   1.400715   0.000000
     4  N    3.760822   2.439026   1.365225   0.000000
     5  S    1.756880   2.812403   3.305039   4.666761   0.000000
     6  C    2.516465   3.903087   4.790266   6.128405   1.760320
     7  C    2.334518   3.663318   4.852870   6.081480   2.605334
     8  N    1.365229   2.439034   3.760832   4.875696   2.578600
     9  S    3.305050   2.812405   1.756880   2.578600   3.116975
    10  C    4.790278   3.903091   2.516468   2.332918   4.861894
    11  C    4.852874   3.663319   2.334522   1.404186   5.397047
    12  C    3.900805   5.275087   6.073147   7.428015   2.835529
    13  C    4.805530   6.205730   7.171753   8.500126   4.078500
    14  C    4.711713   6.058839   7.215967   8.469476   4.505742
    15  C    3.677751   4.932050   6.191648   7.369951   3.945244
    16  C    6.073162   5.275092   3.900810   3.647265   5.902476
    17  C    7.171762   6.205730   4.805531   4.178947   7.187664
    18  C    7.215970   6.058835   4.711714   3.737064   7.562251
    19  C    6.191643   4.932042   3.677748   2.513952   6.795766
    20  C    2.502942   2.958671   4.353095   5.173093   4.012868
    21  C    3.342664   3.583234   4.891523   5.533199   4.811050
    22  C    4.353082   2.958669   2.502941   1.474865   5.629161
    23  C    4.891599   3.583248   3.342733   2.505695   6.274923
    24  H    2.109789   1.080105   2.109786   2.636562   3.759458
    25  H    4.481896   5.777398   6.366295   7.726245   3.064568
    26  H    5.848911   7.248550   8.160293   9.502331   4.974376
    27  H    5.714015   7.027225   8.230846   9.455816   5.589680
    28  H    4.155628   5.237393   6.586320   7.650165   4.775219
    29  H    6.366315   5.777405   4.481901   4.495256   5.890985
    30  H    8.160306   7.248551   5.848913   5.263448   8.048417
    31  H    8.230848   7.027220   5.714015   4.640368   8.635879
    32  H    6.586305   5.237376   4.155620   2.828774   7.416578
    33  H    2.651080   2.646869   3.938371   4.580968   4.317945
    34  H    3.301861   3.924275   5.305856   6.153675   4.592952
    35  H    3.758546   4.283083   5.585350   6.345096   4.935404
    36  H    3.193574   3.134949   4.285170   4.808092   4.676032
    37  H    4.289407   4.349930   5.614024   6.075132   5.839696
    38  H    3.938297   2.646851   2.651036   2.086538   5.365293
    39  H    5.305812   3.924270   3.301832   2.071958   6.487027
    40  H    5.585506   4.283148   3.758687   2.782584   6.794242
    41  H    4.285298   3.134967   3.193643   2.795943   5.715071
    42  H    5.614027   4.349894   4.289436   3.438527   7.121820
                    6          7          8          9         10
     6  C    0.000000
     7  C    1.401522   0.000000
     8  N    2.332914   1.404178   0.000000
     9  S    4.861892   5.397053   4.666778   0.000000
    10  C    6.595548   7.023556   6.128425   1.760325   0.000000
    11  C    7.023549   7.183700   6.081494   2.605336   1.401520
    12  C    1.393114   2.442100   3.647261   5.902467   7.660389
    13  C    2.387639   2.785062   4.178945   7.187660   8.938722
    14  C    2.759566   2.396324   3.737060   7.562252   9.262533
    15  C    2.425782   1.399188   2.513951   6.795775   8.414669
    16  C    7.660396   8.230097   7.428039   2.835538   1.393114
    17  C    8.938723   9.410417   8.500143   4.078506   2.387638
    18  C    9.262528   9.534291   8.469488   4.505748   2.759567
    19  C    8.414656   8.526133   7.369955   3.945246   2.425783
    20  C    3.723806   2.512656   1.474868   5.629190   6.856242
    21  C    4.536564   3.365443   2.505690   6.274813   7.369751
    22  C    6.856213   6.517867   5.173095   4.012865   3.723803
    23  C    7.369865   6.903580   5.533279   4.811178   4.536676
    24  H    4.572831   4.017721   2.636573   3.759453   4.572826
    25  H    2.162586   3.426556   4.495252   5.890972   7.630940
    26  H    3.375004   3.870065   5.263445   8.048408   9.806901
    27  H    3.844801   3.379813   4.640365   8.635880  10.326538
    28  H    3.418816   2.173597   2.828778   7.416596   8.944157
    29  H    7.630953   8.367760   7.726273   3.064577   2.162585
    30  H    9.806908  10.358249   9.502352   4.974385   3.375004
    31  H   10.326533  10.558691   9.455825   5.589685   3.844802
    32  H    8.944135   8.897652   7.650157   4.775217   3.418816
    33  H    4.371513   3.321261   2.086549   5.365404   6.408326
    34  H    3.944531   2.601364   2.071965   6.487110   7.776621
    35  H    4.359373   3.197343   2.782535   6.794022   8.013296
    36  H    4.754947   3.815940   2.795972   5.714904   6.671071
    37  H    5.543277   4.294884   3.438526   7.121785   8.085243
    38  H    6.408212   5.935813   4.580916   4.317875   4.371459
    39  H    7.776538   7.480985   6.153652   4.592893   3.944471
    40  H    8.013518   7.671221   6.345245   4.935643   4.359588
    41  H    6.671261   6.147792   4.808235   4.676166   4.755039
    42  H    8.085273   7.471366   6.075133   5.839784   5.543378
                   11         12         13         14         15
    11  C    0.000000
    12  C    8.230084   0.000000
    13  C    9.410410   1.393348   0.000000
    14  C    9.534291   2.427796   1.401600   0.000000
    15  C    8.526141   2.836292   2.436851   1.392977   0.000000
    16  C    2.442096   8.603137   9.935870  10.385308   9.628542
    17  C    2.785055   9.935865  11.250079  11.632834  10.802164
    18  C    2.396320  10.385298  11.632829  11.855025  10.893582
    19  C    1.399185   9.628524  10.802152  10.893574   9.846946
    20  C    6.517884   4.941047   5.204586   4.417189   3.030407
    21  C    6.903488   5.683578   5.864737   5.009434   3.687493
    22  C    2.512658   8.222594   9.145246   8.897545   7.666165
    23  C    3.365489   8.743458   9.583497   9.234225   7.958815
    24  H    4.017714   5.965665   6.733489   6.370754   5.110745
    25  H    8.367742   1.085151   2.162906   3.416537   3.921435
    26  H   10.358237   2.146895   1.085074   2.157930   3.413551
    27  H   10.558693   3.405724   2.155324   1.085272   2.141127
    28  H    8.897671   3.920176   3.415669   2.151966   1.084064
    29  H    3.426553   8.428756   9.798884  10.386563   9.759697
    30  H    3.870059  10.733062  12.074524  12.531079  11.755201
    31  H    3.379809  11.462660  12.701685  12.896134  11.905540
    32  H    2.173594  10.219748  11.322408  11.290204  10.159742
    33  H    5.935898   5.660808   6.050647   5.341777   3.976918
    34  H    7.481040   4.978366   4.983973   4.002572   2.648775
    35  H    7.671044   5.321844   5.333867   4.426746   3.241473
    36  H    6.147627   5.974083   6.356205   5.684284   4.410849
    37  H    7.471359   6.664239   6.735734   5.748555   4.426150
    38  H    3.321245   7.782975   8.609767   8.266066   7.002201
    39  H    2.601337   9.124908  10.075693   9.852485   8.630730
    40  H    3.197445   9.354794  10.267808  10.008339   8.779003
    41  H    3.815945   8.029245   8.809574   8.424713   7.156640
    42  H    4.294941   9.472296  10.216732   9.742460   8.412584
                   16         17         18         19         20
    16  C    0.000000
    17  C    1.393347   0.000000
    18  C    2.427797   1.401600   0.000000
    19  C    2.836294   2.436852   1.392980   0.000000
    20  C    8.222629   9.145271   8.897560   7.666168   0.000000
    21  C    8.743332   9.583372   9.234118   7.958721   1.529608
    22  C    4.941043   5.204578   4.417184   3.030400   5.046983
    23  C    5.683698   5.864816   5.009454   3.687470   5.193995
    24  H    5.965658   6.733475   6.370738   5.110725   2.565877
    25  H    8.428751   9.798875  10.386550   9.759676   5.871312
    26  H   10.733060  12.074519  12.531070  11.755185   6.273184
    27  H   11.462670  12.701690  12.896135  11.905534   5.096338
    28  H   10.219774  11.322429  11.290221  10.159752   2.779230
    29  H    1.085152   2.162908   3.416539   3.921438   8.670675
    30  H    2.146896   1.085075   2.157928   3.413552  10.195192
    31  H    3.405724   2.155324   1.085272   2.141130   9.801949
    32  H    3.920178   3.415672   2.151971   1.084064   7.742111
    33  H    7.783100   8.609877   8.266150   7.002262   1.092464
    34  H    9.125005  10.075775   9.852543   8.630766   1.091860
    35  H    9.354549  10.267572  10.008139   8.778830   2.177519
    36  H    8.029038   8.809365   8.424525   7.156470   2.183305
    37  H    9.472255  10.216694   9.742440   8.412575   2.159085
    38  H    5.660751   6.050606   5.341765   3.976921   4.325891
    39  H    4.978298   4.983916   4.002547   2.648771   6.015864
    40  H    5.322072   5.334024   4.426794   3.241453   6.129789
    41  H    5.974182   6.356247   5.684255   4.410775   4.452814
    42  H    6.664360   6.735838   5.748621   4.426177   5.489167
                   21         22         23         24         25
    21  C    0.000000
    22  C    5.193913   0.000000
    23  C    5.585674   1.529610   0.000000
    24  H    3.026071   2.565885   3.025950   0.000000
    25  H    6.609353   8.670632   9.254870   6.589529   0.000000
    26  H    6.895218  10.195163  10.644746   7.806872   2.487712
    27  H    5.577392   9.801939  10.086470   7.250476   4.307757
    28  H    3.283703   7.742124   7.932336   5.191576   5.005316
    29  H    9.254734   5.871307   6.609501   6.589525   8.122147
    30  H   10.644616   6.273177   6.895302   7.806859  10.515184
    31  H   10.086367   5.096333   5.577380   7.250458  11.471153
    32  H    7.932254   2.779221   3.283590   5.191548  10.443979
    33  H    2.185491   4.325948   4.247094   2.027853   6.517654
    34  H    2.176222   6.015886   5.988831   3.570254   5.985241
    35  H    1.094113   6.129650   6.625840   3.918858   6.274333
    36  H    1.094570   4.452644   5.085994   2.569067   6.790786
    37  H    1.094644   5.489173   5.696058   3.591769   7.624390
    38  H    4.246971   1.092463   2.185488   2.027948   8.317534
    39  H    5.988713   1.091862   2.176225   3.570306   9.528722
    40  H    6.625870   2.177525   1.094111   3.918754   9.782302
    41  H    5.086108   2.183307   1.094571   2.568888   8.587198
    42  H    5.695973   2.159083   1.094644   3.591621  10.057959
                   26         27         28         29         30
    26  H    0.000000
    27  H    2.478200   0.000000
    28  H    4.301995   2.463242   0.000000
    29  H   10.515186  11.471167  10.444008   0.000000
    30  H   12.854844  13.607578  12.314252   2.487716   0.000000
    31  H   13.607568  13.929362  12.263982   4.307759   2.478198
    32  H   12.314228  12.263968  10.363525   5.005319   4.301998
    33  H    7.124239   6.041467   3.745011   8.317675   9.671337
    34  H    6.002323   4.521986   2.137051   9.528837  11.115644
    35  H    6.301165   4.904043   2.825306   9.782035  11.306845
    36  H    7.392862   6.352880   4.195881   8.586982   9.866765
    37  H    7.745710   6.181805   3.801010  10.057907  11.293000
    38  H    9.671220   9.127333   7.008812   6.517584   7.124196
    39  H   11.115553  10.757831   8.701080   5.985162   6.002265
    40  H   11.307092  10.890499   8.815526   6.274605   6.301327
    41  H    9.866980   9.256102   7.121617   6.790924   7.392911
    42  H   11.293041  10.528213   8.253714   7.624530   7.745823
                   31         32         33         34         35
    31  H    0.000000
    32  H    2.463249   0.000000
    33  H    9.127407   7.008842   0.000000
    34  H   10.757881   8.701087   1.744183   0.000000
    35  H   10.890308   8.815382   3.093168   2.531896   0.000000
    36  H    9.255920   7.121466   2.555958   3.090809   1.771017
    37  H   10.528198   8.253716   2.512679   2.505613   1.772575
    38  H    6.041469   3.745044   3.727385   5.336285   5.164704
    39  H    4.521977   2.137102   5.336332   7.006696   6.890247
    40  H    4.904025   2.825113   5.164880   6.890434   7.654049
    41  H    6.352813   4.195720   3.440932   5.149200   6.128509
    42  H    6.181853   3.800974   4.530541   6.231439   6.766996
                   36         37         38         39         40
    36  H    0.000000
    37  H    1.774520   0.000000
    38  H    3.440733   4.530506   0.000000
    39  H    5.148993   6.231413   1.744194   0.000000
    40  H    6.128415   6.767101   3.093167   2.531875   0.000000
    41  H    4.770233   5.222298   2.555982   3.090813   1.771010
    42  H    5.222098   5.603399   2.512646   2.505644   1.772575
                   41         42
    41  H    0.000000
    42  H    1.774522   0.000000
 Stoichiometry    C19H19N2S2(1+)
 Framework group  C1[X(C19H19N2S2)]
 Deg. of freedom   120
 Full point group                 C1      NOp   1
 Largest Abelian subgroup         C1      NOp   1
 Largest concise Abelian subgroup C1      NOp   1
                         Standard orientation:                         
 ---------------------------------------------------------------------
 Center     Atomic      Atomic             Coordinates (Angstroms)
 Number     Number       Type             X           Y           Z
 ---------------------------------------------------------------------
      1          6           0       -1.259214    0.216698   -0.039367
      2          6           0        0.000003    0.828935   -0.000122
      3          6           0        1.259209    0.216684    0.039249
      4          7           0        2.433464    0.904848    0.145998
      5         16           0       -1.557561   -1.512152    0.053882
      6          6           0       -3.297665   -1.258824   -0.027283
      7          6           0       -3.589904    0.108866   -0.118299
      8          7           0       -2.433474    0.904863   -0.146106
      9         16           0        1.557549   -1.512171   -0.053923
     10          6           0        3.297657   -1.258850    0.027304
     11          6           0        3.589900    0.108842    0.118251
     12          6           0       -4.301571   -2.224422   -0.003624
     13          6           0       -5.624645   -1.792125   -0.066975
     14          6           0       -5.925643   -0.425687   -0.149009
     15          6           0       -4.920394    0.538274   -0.174272
     16          6           0        4.301563   -2.224450    0.003718
     17          6           0        5.624635   -1.792149    0.067066
     18          6           0        5.925635   -0.425707    0.149021
     19          6           0        4.920384    0.538258    0.174213
     20          6           0       -2.510348    2.373529   -0.257226
     21          6           0       -2.566433    3.073786    1.101522
     22          6           0        2.510339    2.373497    0.257299
     23          6           0        2.566508    3.073929   -1.101357
     24          1           0        0.000014    1.909040   -0.000214
     25          1           0       -4.060576   -3.280313    0.063971
     26          1           0       -6.427238   -2.522132   -0.049094
     27          1           0       -6.962056   -0.106514   -0.191342
     28          1           0       -5.176748    1.590213   -0.228130
     29          1           0        4.060566   -3.280345   -0.063815
     30          1           0        6.427230   -2.522156    0.049231
     31          1           0        6.962048   -0.106532    0.191339
     32          1           0        5.176733    1.590201    0.228019
     33          1           0       -1.657488    2.708489   -0.852128
     34          1           0       -3.398115    2.597174   -0.852215
     35          1           0       -3.441185    2.752064    1.674572
     36          1           0       -1.673838    2.863356    1.699082
     37          1           0       -2.634230    4.156364    0.954302
     38          1           0        1.657436    2.708379    0.852183
     39          1           0        3.398074    2.597059    0.852370
     40          1           0        3.441334    2.752344   -1.674368
     41          1           0        1.673988    2.863510   -1.699033
     42          1           0        2.634214    4.156493   -0.953990
 ---------------------------------------------------------------------
 Rotational constants (GHZ):           0.5197631           0.1187459           0.0985340
 Standard basis: def2TZVP (5D, 7F)
 There are   954 symmetry adapted cartesian basis functions of A   symmetry.
 There are   839 symmetry adapted basis functions of A   symmetry.
   839 basis functions,  1361 primitive gaussians,   954 cartesian basis functions
    89 alpha electrons       89 beta electrons
       nuclear repulsion energy      2127.8579715027 Hartrees.
 NAtoms=   42 NActive=   42 NUniq=   42 SFac= 1.00D+00 NAtFMM=   60 NAOKFM=F Big=F
 Integral buffers will be    131072 words long.
 Regular integral format.
 Two-electron integral symmetry is turned on.
 ------------------------------------------------------------------------------
 Polarizable Continuum Model (PCM)
 =================================
 Model                : PCM.
 Atomic radii         : SMD-Coulomb.
 Polarization charges : Total charges.
 Charge compensation  : None.
 Solution method      : On-the-fly selection.
 Cavity type          : VdW (van der Waals Surface) (Alpha=1.000).
 Cavity algorithm     : GePol (No added spheres)
                        Default sphere list used, NSphG=   42.
                        Lebedev-Laikov grids with approx.  5.0 points / Ang**2.
                        Smoothing algorithm: York/Karplus (Gamma=1.0000).
                        Polarization charges: spherical gaussians, with
                                              point-specific exponents (IZeta= 3).
                        Self-potential: point-specific (ISelfS= 7).
                        Self-field    : sphere-specific E.n sum rule (ISelfD= 2).
 Solvent              : Ethanol, Eps=  24.852000 Eps(inf)=   1.852593
 ------------------------------------------------------------------------------
 ------------------------------------------------------------------------------
 Atomic radii for non-electrostatic terms: SMD-CDS.
 ------------------------------------------------------------------------------
 Nuclear repulsion after PCM non-electrostatic terms =     2127.8526197948 Hartrees.
 One-electron integrals computed using PRISM.
   1 Symmetry operations used in ECPInt.
 ECPInt:  NShTT=   55611 NPrTT=  173757 LenC2=   45262 LenP2D=   98157.
 LDataN:  DoStor=T MaxTD1= 6 Len=  172
 NBasis=   839 RedAO= T EigKep=  6.97D-06  NBF=   839
 NBsUse=   839 1.00D-06 EigRej= -1.00D+00 NBFU=   839
 ExpMin= 9.52D-02 ExpMax= 6.07D+04 ExpMxC= 2.07D+03 IAcc=3 IRadAn=         5 AccDes= 0.00D+00
 Harris functional with IExCor= 1009 and IRadAn=       5 diagonalized for initial guess.
 HarFok:  IExCor= 1009 AccDes= 0.00D+00 IRadAn=         5 IDoV= 1 UseB2=F ITyADJ=14
 ICtDFT=  3500011 ScaDFX=  1.000000  1.000000  1.000000  1.000000
 FoFCou: FMM=F IPFlag=           0 FMFlag=      100000 FMFlg1=           0
         NFxFlg=           0 DoJE=T BraDBF=F KetDBF=T FulRan=T
         wScrn=  0.000000 ICntrl=       500 IOpCl=  0 I1Cent=   200000004 NGrid=           0
         NMat0=    1 NMatS0=      1 NMatT0=    0 NMatD0=    1 NMtDS0=    0 NMtDT0=    0
 Petite list used in FoFCou.
 Requested convergence on RMS density matrix=1.00D-08 within 128 cycles.
 Requested convergence on MAX density matrix=1.00D-06.
 Requested convergence on             energy=1.00D-06.
 No special actions if energy rises.
 Inv3:  Mode=1 IEnd=    30470907.
 Iteration    1 A*A^-1 deviation from unit magnitude is 3.33D-15 for    552.
 Iteration    1 A*A^-1 deviation from orthogonality  is 2.00D-15 for   1979     64.
 Iteration    1 A^-1*A deviation from unit magnitude is 3.77D-15 for   3042.
 Iteration    1 A^-1*A deviation from orthogonality  is 4.30D-09 for   2629   2551.
 Iteration    2 A*A^-1 deviation from unit magnitude is 2.44D-15 for    549.
 Iteration    2 A*A^-1 deviation from orthogonality  is 4.07D-15 for   1512    703.
 Iteration    2 A^-1*A deviation from unit magnitude is 1.78D-15 for   2110.
 Iteration    2 A^-1*A deviation from orthogonality  is 2.47D-15 for    936      2.
 Error on total polarization charges =  0.05721
 SCF Done:  E(RPBE1PBE) =  -1640.30229808     A.U. after   12 cycles
            NFock= 12  Conv=0.89D-08     -V/T= 2.0037
 SMD-CDS (non-electrostatic) energy       (kcal/mol) =      -3.36
 (included in total energy above)
 DoSCS=F DFT=T ScalE2(SS,OS)=  1.000000  1.000000
 ExpMin= 9.52D-02 ExpMax= 6.07D+04 ExpMxC= 2.07D+03 IAcc=3 IRadAn=         5 AccDes= 0.00D+00
 HarFok:  IExCor=  205 AccDes= 0.00D+00 IRadAn=         5 IDoV=-2 UseB2=F ITyADJ=14
 ICtDFT= 12500011 ScaDFX=  1.000000  1.000000  1.000000  1.000000
 GSVD:  LWork=       -1209 too small for GESVD, short by        5270 words or        5270 for optimal perf.
 Range of M.O.s used for correlation:    32   839
 NBasis=   839 NAE=    89 NBE=    89 NFC=    31 NFV=     0
 NROrb=    808 NOA=    58 NOB=    58 NVA=   750 NVB=   750

 **** Warning!!: The largest alpha MO coefficient is  0.45218464D+02

 NEqPCM:  Using non-equilibrium solvation (IEInf=1, Eps=  24.8520, EpsInf=   1.8526)
 Inv3:  Mode=1 IEnd=    30470907.
 Iteration    1 A*A^-1 deviation from unit magnitude is 3.33D-15 for    249.
 Iteration    1 A*A^-1 deviation from orthogonality  is 2.44D-15 for   2220    596.
 Iteration    1 A^-1*A deviation from unit magnitude is 3.44D-15 for   1790.
 Iteration    1 A^-1*A deviation from orthogonality  is 2.87D-15 for   1067    948.
 Orbital symmetries:
       Occupied  (A) (A) (A) (A) (A) (A) (A) (A) (A) (A) (A) (A)
                 (A) (A) (A) (A) (A) (A) (A) (A) (A) (A) (A) (A)
                 (A) (A) (A) (A) (A) (A) (A) (A) (A) (A) (A) (A)
                 (A) (A) (A) (A) (A) (A) (A) (A) (A) (A) (A) (A)
                 (A) (A) (A) (A) (A) (A) (A) (A) (A) (A) (A) (A)
                 (A) (A) (A) (A) (A) (A) (A) (A) (A) (A) (A) (A)
                 (A) (A) (A) (A) (A) (A) (A) (A) (A) (A) (A) (A)
                 (A) (A) (A) (A) (A)
       Virtual   (A) (A) (A) (A) (A) (A) (A) (A) (A) (A) (A) (A)
                 (A) (A) (A) (A) (A) (A) (A) (A) (A) (A) (A) (A)
                 (A) (A) (A) (A) (A) (A) (A) (A) (A) (A) (A) (A)
                 (A) (A) (A) (A) (A) (A) (A) (A) (A) (A) (A) (A)
                 (A) (A) (A) (A) (A) (A) (A) (A) (A) (A) (A) (A)
                 (A) (A) (A) (A) (A) (A) (A) (A) (A) (A) (A) (A)
                 (A) (A) (A) (A) (A) (A) (A) (A) (A) (A) (A) (A)
                 (A) (A) (A) (A) (A) (A) (A) (A) (A) (A) (A) (A)
                 (A) (A) (A) (A) (A) (A) (A) (A) (A) (A) (A) (A)
                 (A) (A) (A) (A) (A) (A) (A) (A) (A) (A) (A) (A)
                 (A) (A) (A) (A) (A) (A) (A) (A) (A) (A) (A) (A)
                 (A) (A) (A) (A) (A) (A) (A) (A) (A) (A) (A) (A)
                 (A) (A) (A) (A) (A) (A) (A) (A) (A) (A) (A) (A)
                 (A) (A) (A) (A) (A) (A) (A) (A) (A) (A) (A) (A)
                 (A) (A) (A) (A) (A) (A) (A) (A) (A) (A) (A) (A)
                 (A) (A) (A) (A) (A) (A) (A) (A) (A) (A) (A) (A)
                 (A) (A) (A) (A) (A) (A) (A) (A) (A) (A) (A) (A)
                 (A) (A) (A) (A) (A) (A) (A) (A) (A) (A) (A) (A)
                 (A) (A) (A) (A) (A) (A) (A) (A) (A) (A) (A) (A)
                 (A) (A) (A) (A) (A) (A) (A) (A) (A) (A) (A) (A)
                 (A) (A) (A) (A) (A) (A) (A) (A) (A) (A) (A) (A)
                 (A) (A) (A) (A) (A) (A) (A) (A) (A) (A) (A) (A)
                 (A) (A) (A) (A) (A) (A) (A) (A) (A) (A) (A) (A)
                 (A) (A) (A) (A) (A) (A) (A) (A) (A) (A) (A) (A)
                 (A) (A) (A) (A) (A) (A) (A) (A) (A) (A) (A) (A)
                 (A) (A) (A) (A) (A) (A) (A) (A) (A) (A) (A) (A)
                 (A) (A) (A) (A) (A) (A) (A) (A) (A) (A) (A) (A)
                 (A) (A) (A) (A) (A) (A) (A) (A) (A) (A) (A) (A)
                 (A) (A) (A) (A) (A) (A) (A) (A) (A) (A) (A) (A)
                 (A) (A) (A) (A) (A) (A) (A) (A) (A) (A) (A) (A)
                 (A) (A) (A) (A) (A) (A) (A) (A) (A) (A) (A) (A)
                 (A) (A) (A) (A) (A) (A) (A) (A) (A) (A) (A) (A)
                 (A) (A) (A) (A) (A) (A) (A) (A) (A) (A) (A) (A)
                 (A) (A) (A) (A) (A) (A) (A) (A) (A) (A) (A) (A)
                 (A) (A) (A) (A) (A) (A) (A) (A) (A) (A) (A) (A)
                 (A) (A) (A) (A) (A) (A) (A) (A) (A) (A) (A) (A)
                 (A) (A) (A) (A) (A) (A) (A) (A) (A) (A) (A) (A)
                 (A) (A) (A) (A) (A) (A) (A) (A) (A) (A) (A) (A)
                 (A) (A) (A) (A) (A) (A) (A) (A) (A) (A) (A) (A)
                 (A) (A) (A) (A) (A) (A) (A) (A) (A) (A) (A) (A)
                 (A) (A) (A) (A) (A) (A) (A) (A) (A) (A) (A) (A)
                 (A) (A) (A) (A) (A) (A) (A) (A) (A) (A) (A) (A)
                 (A) (A) (A) (A) (A) (A) (A) (A) (A) (A) (A) (A)
                 (A) (A) (A) (A) (A) (A) (A) (A) (A) (A) (A) (A)
                 (A) (A) (A) (A) (A) (A) (A) (A) (A) (A) (A) (A)
                 (A) (A) (A) (A) (A) (A) (A) (A) (A) (A) (A) (A)
                 (A) (A) (A) (A) (A) (A) (A) (A) (A) (A) (A) (A)
                 (A) (A) (A) (A) (A) (A) (A) (A) (A) (A) (A) (A)
                 (A) (A) (A) (A) (A) (A) (A) (A) (A) (A) (A) (A)
                 (A) (A) (A) (A) (A) (A) (A) (A) (A) (A) (A) (A)
                 (A) (A) (A) (A) (A) (A) (A) (A) (A) (A) (A) (A)
                 (A) (A) (A) (A) (A) (A) (A) (A) (A) (A) (A) (A)
                 (A) (A) (A) (A) (A) (A) (A) (A) (A) (A) (A) (A)
                 (A) (A) (A) (A) (A) (A) (A) (A) (A) (A) (A) (A)
                 (A) (A) (A) (A) (A) (A) (A) (A) (A) (A) (A) (A)
                 (A) (A) (A) (A) (A) (A) (A) (A) (A) (A) (A) (A)
                 (A) (A) (A) (A) (A) (A) (A) (A) (A) (A) (A) (A)
                 (A) (A) (A) (A) (A) (A) (A) (A) (A) (A) (A) (A)
                 (A) (A) (A) (A) (A) (A) (A) (A) (A) (A) (A) (A)
                 (A) (A) (A) (A) (A) (A) (A) (A) (A) (A) (A) (A)
                 (A) (A) (A) (A) (A) (A) (A) (A) (A) (A) (A) (A)
                 (A) (A) (A) (A) (A) (A) (A) (A) (A) (A) (A) (A)
                 (A) (A) (A) (A) (A) (A)
   600 initial guesses have been made.
 Convergence on wavefunction:    0.001000000000000
 Iteration     1 Dimension   600 NMult     0 NNew    600
 CISAX will form   216 AO SS matrices at one time.
 New state      2 was old state      3
 New state      3 was old state      2
 New state      6 was old state      7
 New state      7 was old state      6
 New state      9 was old state     10
 New state     10 was old state      9
 New state     11 was old state     14
 New state     12 was old state     13
 New state     13 was old state     11
 New state     14 was old state     17
 New state     15 was old state     19
 New state     16 was old state     23
 New state     17 was old state     12
 New state     18 was old state     22
 New state     19 was old state     15
 New state     20 was old state     27
 New state     21 was old state     18
 New state     22 was old state     21
 New state     23 was old state     20
 New state     24 was old state     25
 New state     25 was old state     31
 New state     26 was old state     24
 New state     27 was old state     26
 New state     28 was old state     33
 New state     29 was old state     32
 New state     30 was old state     34
 New state     31 was old state     29
 New state     32 was old state     37
 New state     33 was old state     38
 New state     34 was old state     36
 New state     36 was old state     46
 New state     37 was old state     40
 New state     38 was old state     39
 New state     39 was old state     30
 New state     40 was old state     54
 New state     41 was old state     28
 New state     42 was old state     44
 New state     43 was old state     55
 New state     44 was old state     43
 New state     46 was old state     50
 New state     48 was old state     51
 New state     49 was old state     41
 New state     50 was old state     42
 New state     51 was old state     49
 New state     53 was old state     58
 New state     54 was old state     63
 New state     55 was old state     56
 New state     56 was old state     57
 New state     57 was old state     48
 New state     58 was old state     62
 New state     59 was old state     60
 New state     60 was old state     65
 New state     61 was old state     64
 New state     62 was old state     78
 New state     63 was old state     69
 New state     64 was old state     90
 New state     65 was old state     67
 New state     66 was old state     71
 New state     67 was old state     53
 New state     68 was old state     61
 New state     69 was old state     77
 New state     70 was old state     66
 New state     71 was old state     70
 New state     72 was old state     76
 New state     73 was old state     82
 New state     74 was old state     81
 New state     75 was old state     79
 New state     76 was old state     86
 New state     77 was old state     87
 New state     78 was old state     97
 New state     79 was old state     68
 New state     80 was old state    106
 New state     81 was old state     95
 New state     82 was old state     72
 New state     83 was old state    138
 New state     84 was old state     80
 New state     85 was old state    123
 New state     86 was old state    100
 New state     87 was old state    124
 New state     88 was old state     85
 New state     89 was old state     74
 New state     90 was old state     84
 New state     91 was old state     75
 New state     92 was old state     83
 New state     93 was old state     91
 New state     95 was old state     88
 New state     96 was old state     92
 New state     97 was old state     93
 New state     98 was old state     89
 New state     99 was old state     96
 New state    100 was old state    107
 New state    101 was old state     98
 New state    103 was old state    117
 New state    104 was old state     99
 New state    105 was old state    103
 New state    106 was old state    146
 New state    107 was old state    131
 New state    108 was old state    114
 New state    109 was old state    133
 New state    110 was old state    109
 New state    112 was old state    130
 New state    114 was old state    115
 New state    115 was old state    104
 New state    116 was old state    101
 New state    117 was old state    110
 New state    118 was old state    112
 New state    119 was old state    129
 New state    120 was old state    159
 New state    121 was old state    120
 New state    122 was old state    118
 New state    123 was old state    172
 New state    124 was old state    128
 New state    125 was old state    122
 New state    126 was old state    125
 New state    127 was old state    116
 New state    128 was old state    143
 New state    129 was old state    132
 New state    130 was old state    121
 New state    131 was old state    162
 New state    132 was old state    126
 New state    133 was old state    105
 New state    134 was old state    127
 New state    135 was old state    108
 New state    136 was old state    150
 New state    137 was old state    141
 New state    138 was old state    134
 New state    139 was old state    151
 New state    141 was old state    137
 New state    142 was old state    147
 New state    143 was old state    144
 New state    144 was old state    156
 New state    145 was old state    119
 New state    146 was old state    142
 New state    147 was old state    161
 New state    148 was old state    139
 New state    149 was old state    135
 New state    150 was old state    148
 Iteration     2 Dimension   900 NMult   600 NNew    300
 New state     15 was old state     16
 New state     16 was old state     17
 New state     17 was old state     15
 New state     19 was old state     22
 New state     20 was old state     19
 New state     21 was old state     27
 New state     22 was old state     20
 New state     23 was old state     21
 New state     25 was old state     23
 New state     26 was old state     25
 New state     27 was old state     26
 New state     28 was old state     32
 New state     29 was old state     28
 New state     30 was old state     31
 New state     31 was old state     29
 New state     32 was old state     41
 New state     33 was old state     30
 New state     34 was old state     39
 New state     35 was old state     33
 New state     36 was old state     34
 New state     37 was old state     35
 New state     38 was old state     36
 New state     39 was old state     38
 New state     40 was old state     37
 New state     41 was old state     40
 New state     45 was old state     50
 New state     46 was old state     45
 New state     47 was old state     48
 New state     48 was old state     49
 New state     49 was old state     46
 New state     50 was old state     47
 New state     52 was old state     58
 New state     53 was old state     54
 New state     54 was old state     52
 New state     55 was old state     59
 New state     56 was old state     53
 New state     57 was old state     55
 New state     58 was old state     57
 New state     59 was old state     56
 New state     61 was old state     74
 New state     62 was old state     61
 New state     63 was old state     62
 New state     65 was old state     63
 New state     66 was old state     67
 New state     67 was old state     70
 New state     68 was old state     66
 New state     69 was old state     65
 New state     70 was old state     78
 New state     71 was old state     69
 New state     72 was old state     68
 New state     73 was old state     71
 New state     74 was old state     86
 New state     75 was old state     72
 New state     76 was old state     79
 New state     77 was old state     73
 New state     78 was old state     77
 New state     79 was old state     75
 New state     80 was old state     83
 New state     81 was old state     76
 New state     82 was old state     80
 New state     83 was old state     81
 New state     84 was old state     82
 New state     85 was old state     92
 New state     86 was old state     85
 New state     88 was old state     84
 New state     89 was old state     88
 New state     90 was old state     89
 New state     91 was old state     93
 New state     92 was old state     91
 New state     93 was old state     90
 New state     94 was old state     95
 New state     95 was old state     94
 New state     97 was old state    101
 New state     98 was old state    100
 New state     99 was old state     97
 New state    100 was old state    105
 New state    101 was old state     99
 New state    102 was old state     98
 New state    103 was old state    102
 New state    104 was old state    103
 New state    105 was old state    108
 New state    106 was old state    104
 New state    107 was old state    106
 New state    108 was old state    107
 New state    110 was old state    113
 New state    111 was old state    110
 New state    113 was old state    122
 New state    115 was old state    111
 New state    116 was old state    117
 New state    117 was old state    115
 New state    118 was old state    116
 New state    119 was old state    120
 New state    120 was old state    119
 New state    121 was old state    135
 New state    122 was old state    121
 New state    123 was old state    118
 New state    124 was old state    123
 New state    125 was old state    129
 New state    126 was old state    124
 New state    128 was old state    125
 New state    129 was old state    126
 New state    130 was old state    128
 New state    133 was old state    130
 New state    134 was old state    137
 New state    135 was old state    133
 New state    136 was old state    134
 New state    137 was old state    136
 New state    138 was old state    142
 New state    139 was old state    138
 New state    140 was old state    139
 New state    142 was old state    140
 New state    144 was old state    145
 New state    145 was old state    146
 New state    146 was old state    144
 New state    148 was old state    153
 New state    149 was old state    148
 New state    150 was old state    152
 Iteration     3 Dimension  1200 NMult   900 NNew    300
 New state     27 was old state     28
 New state     28 was old state     27
 Iteration     4 Dimension  1472 NMult  1200 NNew    272
 Iteration     5 Dimension  1508 NMult  1472 NNew     36
 ***********************************************************************
 Excited states from <AA,BB:AA,BB> singles matrix:
 ***********************************************************************
 
 Ground to excited state transition densities written to RWF  633
 Ground to excited state transition electric dipole moments (Au):
       state          X           Y           Z        Dip. S.      Osc.
         1        -3.9447      0.0000     -0.0303     15.5619      1.2249
         2        -0.0757      0.0000     -0.0414      0.0074      0.0007
         3        -0.0000      0.4641     -0.0000      0.2154      0.0223
         4        -0.2497     -0.0000     -0.0144      0.0625      0.0067
         5        -0.0000      0.6447     -0.0000      0.4156      0.0462
         6        -0.6182      0.0000     -0.0542      0.3852      0.0440
         7        -0.0000      0.1796     -0.0000      0.0323      0.0037
         8        -0.0000     -0.8501      0.0000      0.7227      0.0871
         9        -0.0001     -0.0221     -0.0000      0.0005      0.0001
        10         0.2730     -0.0000      0.0165      0.0748      0.0094
        11         0.0000      0.0316     -0.0000      0.0010      0.0001
        12         0.2768      0.0000     -0.0040      0.0766      0.0100
        13        -1.4596      0.0000     -0.0096      2.1304      0.2855
        14         0.0001     -0.0464     -0.0000      0.0022      0.0003
        15        -0.0004      1.2163     -0.0000      1.4794      0.2100
        16         1.1608      0.0004     -0.0064      1.3476      0.1919
        17         0.0354     -0.0003     -0.0082      0.0013      0.0002
        18         0.0000      0.6870     -0.0000      0.4720      0.0683
        19        -0.0000     -0.2288      0.0002      0.0523      0.0077
        20        -0.0002     -0.0539      0.0001      0.0029      0.0004
        21        -0.0000      0.0755      0.0000      0.0057      0.0009
        22        -0.3833     -0.0002     -0.1030      0.1576      0.0236
        23        -0.5475      0.0003      0.1311      0.3169      0.0477
        24        -0.6863      0.0001      0.0584      0.4744      0.0721
        25        -2.0661     -0.0000     -0.1356      4.2874      0.6632
        26        -0.1693     -0.0001      0.1554      0.0528      0.0084
        27         0.0001     -0.1394     -0.0000      0.0194      0.0031
        28         0.0001      0.1524     -0.0000      0.0232      0.0037
        29         0.0883     -0.0000     -0.0329      0.0089      0.0014
        30        -0.2810     -0.0001     -0.0609      0.0827      0.0133
        31         0.1594      0.0000      0.0487      0.0278      0.0045
        32         1.2451     -0.0000      0.0705      1.5552      0.2531
        33         0.4103     -0.0000      0.0360      0.1696      0.0278
        34         0.0000      1.0762     -0.0000      1.1582      0.1917
        35         0.0000     -0.0672      0.0000      0.0045      0.0008
        36         0.0000      0.1179     -0.0000      0.0139      0.0023
        37         0.0001      0.0777      0.0000      0.0060      0.0010
        38         0.0001      0.1077     -0.0000      0.0116      0.0020
        39        -0.0140     -0.0000      0.0025      0.0002      0.0000
        40         0.2979     -0.0000     -0.0301      0.0896      0.0152
        41         0.0473     -0.0000      0.0470      0.0044      0.0008
        42         0.0001     -0.1159     -0.0000      0.0134      0.0023
        43        -0.0000      0.0571      0.0000      0.0033      0.0006
        44        -0.2193      0.0001      0.0071      0.0481      0.0084
        45        -0.0001     -0.1855      0.0000      0.0344      0.0060
        46        -0.4775     -0.0000      0.0134      0.2282      0.0402
        47        -0.0001      0.1654      0.0001      0.0274      0.0048
        48         0.8774      0.0000      0.0472      0.7720      0.1367
        49         0.0853      0.0001     -0.0731      0.0126      0.0022
        50         0.0000      0.1095      0.0000      0.0120      0.0021
        51         0.0001     -0.0266      0.0001      0.0007      0.0001
        52         0.8273     -0.0004     -0.0165      0.6847      0.1237
        53        -0.0051     -0.4933     -0.0014      0.2433      0.0441
        54         0.2915     -0.0085      0.0860      0.0924      0.0168
        55        -0.0004     -0.5260     -0.0001      0.2767      0.0503
        56         0.0000     -0.0218     -0.0000      0.0005      0.0001
        57         0.0002      0.0179     -0.0000      0.0003      0.0001
        58        -0.0021     -0.1415      0.0005      0.0200      0.0037
        59        -0.1799      0.0015      0.0443      0.0343      0.0063
        60        -0.2891     -0.0008      0.0711      0.0886      0.0166
        61         0.0001      1.7320      0.0002      2.9998      0.5615
        62         0.1255     -0.0014      0.2625      0.0846      0.0159
        63         0.0002     -0.0949      0.0004      0.0090      0.0017
        64        -0.7920      0.0003      0.0546      0.6302      0.1186
        65         0.4342     -0.0003     -0.0868      0.1961      0.0370
        66        -0.8938     -0.0000     -0.0883      0.8067      0.1523
        67         0.7637      0.0002      0.0205      0.5836      0.1106
        68         0.0000      0.0907      0.0000      0.0082      0.0016
        69        -0.0001     -0.1316     -0.0002      0.0173      0.0033
        70        -0.0489      0.0003     -0.1556      0.0266      0.0051
        71         0.1178      0.0001      0.1155      0.0272      0.0052
        72        -0.0001      0.5869     -0.0000      0.3445      0.0664
        73        -0.0862      0.0021     -0.1592      0.0328      0.0064
        74        -0.0004     -0.5032     -0.0006      0.2532      0.0492
        75        -0.0895      0.0007      0.0947      0.0170      0.0033
        76         0.2058      0.0001     -0.1926      0.0795      0.0155
        77        -0.0000     -0.0322      0.0000      0.0010      0.0002
        78         0.0001      0.1458      0.0000      0.0213      0.0042
        79         0.0002     -0.0587     -0.0001      0.0034      0.0007
        80        -0.5256     -0.0000      0.0655      0.2806      0.0554
        81        -0.0005     -0.0117      0.0001      0.0001      0.0000
        82         0.0002     -0.0400     -0.0000      0.0016      0.0003
        83         0.0544     -0.0000     -0.1425      0.0233      0.0046
        84        -0.0001     -0.0500      0.0001      0.0025      0.0005
        85        -0.0883     -0.0000     -0.0776      0.0138      0.0028
        86        -0.0000     -0.0130      0.0000      0.0002      0.0000
        87         0.0053      0.0000      0.0228      0.0005      0.0001
        88        -0.0000     -0.0422      0.0000      0.0018      0.0004
        89        -0.0190     -0.0002     -0.0684      0.0050      0.0010
        90        -0.0000      0.2230     -0.0001      0.0497      0.0101
        91        -0.0001      0.1779      0.0001      0.0316      0.0064
        92        -0.0092      0.0002      0.1456      0.0213      0.0043
        93        -0.0000     -0.0052      0.0000      0.0000      0.0000
        94         0.2299      0.0001      0.0571      0.0561      0.0114
        95         0.1362      0.0001     -0.0599      0.0221      0.0045
        96         0.0000     -0.2032      0.0000      0.0413      0.0084
        97         0.0003      0.3624      0.0001      0.1314      0.0269
        98         0.2787     -0.0003      0.1358      0.0961      0.0197
        99         0.1083     -0.0000     -0.0196      0.0121      0.0025
       100         0.0514     -0.0001     -0.0169      0.0029      0.0006
       101         0.0001     -0.0312     -0.0001      0.0010      0.0002
       102         0.0281     -0.0000     -0.1143      0.0138      0.0028
       103         0.0000      0.0736      0.0000      0.0054      0.0011
       104         0.0228     -0.0000     -0.0476      0.0028      0.0006
       105         0.0000     -0.0949      0.0000      0.0090      0.0019
       106        -0.0000     -0.1540     -0.0000      0.0237      0.0049
       107        -0.1325      0.0000     -0.1037      0.0283      0.0059
       108         0.0000      0.2285     -0.0000      0.0522      0.0109
       109         0.0000      0.0276     -0.0000      0.0008      0.0002
       110        -0.0303      0.0000     -0.0365      0.0023      0.0005
       111         0.0000      0.0150     -0.0000      0.0002      0.0000
       112        -0.0000     -0.4123      0.0000      0.1700      0.0357
       113        -0.0000      0.6389     -0.0000      0.4082      0.0859
       114        -0.0001      0.0679      0.0000      0.0046      0.0010
       115         0.0024      0.0003     -0.0048      0.0000      0.0000
       116        -0.2939     -0.0000     -0.0042      0.0864      0.0182
       117        -0.0292      0.0001     -0.0264      0.0015      0.0003
       118         0.0001      0.1007      0.0001      0.0101      0.0021
       119         0.0035      0.3294      0.0036      0.1085      0.0230
       120         0.1225     -0.0091      0.1297      0.0319      0.0068
       121        -0.0004     -0.4425      0.0010      0.1958      0.0417
       122         0.0697     -0.0025     -0.1511      0.0277      0.0059
       123         0.0002     -0.0280     -0.0005      0.0008      0.0002
       124         0.0846     -0.0001     -0.0929      0.0158      0.0034
       125        -0.0370      0.0003      0.0128      0.0015      0.0003
       126         0.0002     -0.1223     -0.0001      0.0150      0.0032
       127        -0.0000     -0.0589      0.0000      0.0035      0.0007
       128        -0.0997      0.0002      0.0306      0.0109      0.0023
       129         0.0090     -0.0001     -0.0297      0.0010      0.0002
       130        -0.1284      0.0000     -0.0358      0.0178      0.0038
       131         0.0571     -0.0008      0.0126      0.0034      0.0007
       132         0.0002      0.3022     -0.0000      0.0913      0.0197
       133         0.0000      0.0120      0.0000      0.0001      0.0000
       134        -0.0000     -0.0214      0.0003      0.0005      0.0001
       135         0.0122      0.0001      0.0781      0.0062      0.0014
       136         0.0108     -0.0001     -0.1032      0.0108      0.0023
       137        -0.0523     -0.0001     -0.0816      0.0094      0.0020
       138        -0.0010      0.0510     -0.0000      0.0026      0.0006
       139         0.0512      0.0009     -0.0010      0.0026      0.0006
       140         0.0203      0.0001      0.0156      0.0007      0.0001
       141         0.1255     -0.0000     -0.0703      0.0207      0.0045
       142         0.0002      0.0730     -0.0001      0.0053      0.0012
       143        -0.1028      0.0001     -0.1370      0.0294      0.0064
       144        -0.0001      0.0726     -0.0000      0.0053      0.0012
       145        -0.0002     -0.0988     -0.0000      0.0098      0.0021
       146        -0.0609      0.0000      0.0060      0.0037      0.0008
       147         0.0052     -0.0002      0.0246      0.0006      0.0001
       148         0.0003      0.0001      0.0261      0.0007      0.0002
       149         0.0000      0.2426     -0.0000      0.0589      0.0130
       150        -0.0001     -0.2400      0.0000      0.0576      0.0128
 Ground to excited state transition velocity dipole moments (Au):
       state          X           Y           Z        Dip. S.      Osc.
         1         0.4628     -0.0000      0.0039      0.2142      1.2094
         2         0.0112     -0.0000      0.0068      0.0002      0.0008
         3        -0.0000     -0.0718      0.0000      0.0052      0.0222
         4         0.0403      0.0000      0.0023      0.0016      0.0068
         5         0.0000     -0.1104      0.0000      0.0122      0.0488
         6         0.1080     -0.0000      0.0089      0.0117      0.0457
         7         0.0000     -0.0302      0.0000      0.0009      0.0035
         8         0.0000      0.1562     -0.0000      0.0244      0.0900
         9         0.0000      0.0041      0.0000      0.0000      0.0001
        10        -0.0505      0.0000     -0.0033      0.0026      0.0091
        11        -0.0000     -0.0057      0.0000      0.0000      0.0001
        12        -0.0543     -0.0000      0.0025      0.0030      0.0101
        13         0.2940     -0.0000      0.0022      0.0864      0.2866
        14        -0.0000      0.0099      0.0000      0.0001      0.0003
        15         0.0001     -0.2608      0.0000      0.0680      0.2129
        16        -0.2465     -0.0001      0.0014      0.0608      0.1897
        17        -0.0077      0.0001      0.0014      0.0001      0.0002
        18        -0.0000     -0.1498      0.0000      0.0224      0.0690
        19         0.0000      0.0495     -0.0000      0.0024      0.0074
        20         0.0000      0.0104     -0.0000      0.0001      0.0003
        21         0.0000     -0.0186      0.0000      0.0003      0.0010
        22         0.0848      0.0000      0.0236      0.0078      0.0230
        23         0.1212     -0.0001     -0.0298      0.0156      0.0460
        24         0.1570     -0.0000     -0.0139      0.0248      0.0727
        25         0.4767      0.0000      0.0316      0.2282      0.6557
        26         0.0390      0.0000     -0.0378      0.0030      0.0083
        27        -0.0000      0.0344      0.0000      0.0012      0.0033
        28        -0.0000     -0.0359      0.0000      0.0013      0.0036
        29        -0.0204      0.0000      0.0082      0.0005      0.0013
        30         0.0657      0.0000      0.0153      0.0046      0.0126
        31        -0.0386     -0.0000     -0.0094      0.0016      0.0044
        32        -0.3059      0.0000     -0.0174      0.0939      0.2565
        33        -0.1017      0.0000     -0.0071      0.0104      0.0282
        34        -0.0000     -0.2679      0.0000      0.0718      0.1928
        35        -0.0000      0.0174     -0.0000      0.0003      0.0008
        36         0.0000     -0.0308      0.0000      0.0010      0.0025
        37        -0.0000     -0.0184     -0.0000      0.0003      0.0009
        38        -0.0000     -0.0275      0.0000      0.0008      0.0020
        39         0.0032      0.0000     -0.0012      0.0000      0.0000
        40        -0.0751      0.0000      0.0071      0.0057      0.0149
        41        -0.0123      0.0000     -0.0117      0.0003      0.0007
        42        -0.0000      0.0304      0.0000      0.0009      0.0024
        43         0.0000     -0.0144     -0.0000      0.0002      0.0005
        44         0.0570     -0.0000     -0.0017      0.0033      0.0083
        45         0.0000      0.0474      0.0000      0.0022      0.0057
        46         0.1280      0.0000     -0.0037      0.0164      0.0414
        47         0.0000     -0.0442     -0.0000      0.0019      0.0049
        48        -0.2334     -0.0000     -0.0128      0.0546      0.1371
        49        -0.0230     -0.0000      0.0197      0.0009      0.0023
        50        -0.0000     -0.0282     -0.0000      0.0008      0.0020
        51        -0.0000      0.0084     -0.0000      0.0001      0.0002
        52        -0.2247      0.0001      0.0041      0.0505      0.1243
        53         0.0014      0.1338      0.0003      0.0179      0.0439
        54        -0.0792      0.0023     -0.0217      0.0067      0.0165
        55         0.0001      0.1417      0.0000      0.0201      0.0491
        56        -0.0000      0.0059      0.0000      0.0000      0.0001
        57        -0.0001     -0.0069      0.0000      0.0000      0.0001
        58         0.0006      0.0406     -0.0001      0.0016      0.0040
        59         0.0527     -0.0004     -0.0122      0.0029      0.0071
        60         0.0820      0.0002     -0.0174      0.0070      0.0167
        61        -0.0000     -0.4834     -0.0000      0.2337      0.5549
        62        -0.0350      0.0004     -0.0694      0.0060      0.0143
        63        -0.0000      0.0261     -0.0001      0.0007      0.0016
        64         0.2258     -0.0001     -0.0170      0.0513      0.1211
        65        -0.1228      0.0001      0.0260      0.0158      0.0372
        66         0.2543      0.0000      0.0258      0.0653      0.1538
        67        -0.2194     -0.0001     -0.0063      0.0482      0.1129
        68        -0.0000     -0.0255     -0.0000      0.0006      0.0015
        69         0.0000      0.0375      0.0001      0.0014      0.0033
        70         0.0144     -0.0001      0.0415      0.0019      0.0045
        71        -0.0332     -0.0000     -0.0291      0.0019      0.0045
        72         0.0000     -0.1681     -0.0000      0.0283      0.0652
        73         0.0256     -0.0006      0.0458      0.0027      0.0063
        74         0.0001      0.1449      0.0002      0.0210      0.0480
        75         0.0253     -0.0002     -0.0270      0.0014      0.0031
        76        -0.0581     -0.0000      0.0543      0.0063      0.0144
        77         0.0000      0.0096     -0.0000      0.0001      0.0002
        78        -0.0000     -0.0428     -0.0000      0.0018      0.0042
        79        -0.0001      0.0180      0.0000      0.0003      0.0007
        80         0.1573      0.0000     -0.0193      0.0251      0.0565
        81         0.0001      0.0027     -0.0000      0.0000      0.0000
        82        -0.0001      0.0118      0.0000      0.0001      0.0003
        83        -0.0161      0.0000      0.0343      0.0014      0.0032
        84         0.0000      0.0148     -0.0000      0.0002      0.0005
        85         0.0270      0.0000      0.0217      0.0012      0.0027
        86         0.0000      0.0038     -0.0000      0.0000      0.0000
        87        -0.0016     -0.0000     -0.0074      0.0001      0.0001
        88         0.0000      0.0127     -0.0000      0.0002      0.0004
        89         0.0058      0.0001      0.0129      0.0002      0.0004
        90         0.0000     -0.0672      0.0000      0.0045      0.0099
        91         0.0000     -0.0523     -0.0000      0.0027      0.0060
        92         0.0010     -0.0000     -0.0382      0.0015      0.0032
        93         0.0000      0.0014     -0.0000      0.0000      0.0000
        94        -0.0708     -0.0000     -0.0164      0.0053      0.0115
        95        -0.0422     -0.0000      0.0160      0.0020      0.0044
        96        -0.0000      0.0627     -0.0000      0.0039      0.0086
        97        -0.0001     -0.1121     -0.0000      0.0126      0.0273
        98        -0.0855      0.0001     -0.0409      0.0090      0.0195
        99        -0.0318     -0.0000      0.0050      0.0010      0.0022
       100        -0.0150      0.0000      0.0072      0.0003      0.0006
       101        -0.0000      0.0119      0.0000      0.0001      0.0003
       102        -0.0083      0.0000      0.0312      0.0010      0.0023
       103        -0.0000     -0.0204     -0.0000      0.0004      0.0009
       104        -0.0073      0.0000      0.0150      0.0003      0.0006
       105        -0.0000      0.0283     -0.0000      0.0008      0.0017
       106         0.0000      0.0483      0.0000      0.0023      0.0050
       107         0.0401     -0.0000      0.0297      0.0025      0.0053
       108        -0.0000     -0.0726      0.0000      0.0053      0.0112
       109        -0.0000     -0.0093     -0.0000      0.0001      0.0002
       110         0.0087      0.0000      0.0128      0.0002      0.0005
       111        -0.0000     -0.0040      0.0000      0.0000      0.0000
       112         0.0000      0.1298     -0.0000      0.0168      0.0356
       113         0.0000     -0.2035      0.0000      0.0414      0.0875
       114         0.0000     -0.0219      0.0000      0.0005      0.0010
       115        -0.0006     -0.0001      0.0049      0.0000      0.0001
       116         0.0945      0.0000      0.0018      0.0089      0.0188
       117         0.0091     -0.0000      0.0060      0.0001      0.0003
       118        -0.0000     -0.0321     -0.0000      0.0010      0.0022
       119        -0.0011     -0.1029     -0.0011      0.0106      0.0222
       120        -0.0387      0.0028     -0.0393      0.0030      0.0064
       121         0.0002      0.1386     -0.0003      0.0192      0.0401
       122        -0.0257      0.0008      0.0457      0.0028      0.0058
       123        -0.0001      0.0117      0.0002      0.0001      0.0003
       124        -0.0272      0.0000      0.0284      0.0015      0.0032
       125         0.0109     -0.0001     -0.0036      0.0001      0.0003
       126        -0.0001      0.0369      0.0000      0.0014      0.0028
       127         0.0000      0.0173     -0.0000      0.0003      0.0006
       128         0.0315     -0.0001     -0.0079      0.0011      0.0022
       129        -0.0034      0.0000      0.0080      0.0001      0.0002
       130         0.0410     -0.0000      0.0059      0.0017      0.0035
       131        -0.0190      0.0003     -0.0032      0.0004      0.0008
       132        -0.0000     -0.0955      0.0000      0.0091      0.0188
       133        -0.0000     -0.0037     -0.0000      0.0000      0.0000
       134         0.0000      0.0089     -0.0001      0.0001      0.0002
       135        -0.0022     -0.0000     -0.0242      0.0006      0.0012
       136        -0.0046      0.0000      0.0341      0.0012      0.0024
       137         0.0172      0.0000      0.0258      0.0010      0.0020
       138         0.0003     -0.0188      0.0000      0.0004      0.0007
       139        -0.0164     -0.0003      0.0004      0.0003      0.0005
       140        -0.0073     -0.0000     -0.0071      0.0001      0.0002
       141        -0.0398      0.0000      0.0249      0.0022      0.0045
       142        -0.0001     -0.0243      0.0000      0.0006      0.0012
       143         0.0329     -0.0000      0.0408      0.0027      0.0056
       144         0.0000     -0.0238      0.0000      0.0006      0.0011
       145         0.0001      0.0320      0.0000      0.0010      0.0021
       146         0.0204     -0.0000     -0.0035      0.0004      0.0009
       147        -0.0022      0.0000     -0.0072      0.0001      0.0001
       148         0.0002     -0.0000     -0.0074      0.0001      0.0001
       149         0.0000     -0.0804      0.0000      0.0065      0.0130
       150         0.0000      0.0788     -0.0000      0.0062      0.0124
 Ground to excited state transition magnetic dipole moments (Au):
       state          X           Y           Z
         1        -0.0275     -0.0001     -0.7151
         2         0.1957     -0.0000      0.1968
         3         0.0000     -0.0521      0.0000
         4        -0.0136     -0.0000     -0.1987
         5         0.0000      0.1111     -0.0000
         6        -0.0483      0.0000      1.4743
         7        -0.0000      0.0555      0.0000
         8        -0.0000     -0.0992     -0.0000
         9        -0.0000      0.4189      0.0002
        10         0.1090      0.0000     -1.6211
        11        -0.0000      0.1009      0.0001
        12        -0.2744     -0.0000     -0.0351
        13        -0.0268     -0.0000     -0.5637
        14         0.0000     -0.0552      0.0000
        15         0.0000      0.0709     -0.0006
        16        -0.0615      0.0001      1.7551
        17         0.0277      0.0000     -0.0399
        18         0.0000      0.0779      0.0002
        19        -0.0002     -0.0635      0.0000
        20        -0.0002      0.0963      0.0001
        21        -0.0000      0.0523     -0.0002
        22         0.0852     -0.0000      0.8753
        23        -0.2260      0.0000      0.9621
        24        -0.0892     -0.0001     -0.5918
        25        -0.0224      0.0000      2.7663
        26        -0.0918     -0.0000     -0.1308
        27        -0.0000     -0.1232     -0.0001
        28         0.0000      0.0162     -0.0002
        29        -0.3992     -0.0000     -0.7460
        30        -0.2737      0.0001      2.1343
        31        -0.2646     -0.0000     -0.5898
        32        -0.0468      0.0000      0.9545
        33        -0.3382     -0.0000      0.2036
        34        -0.0000      0.1093      0.0002
        35        -0.0000      0.3831     -0.0000
        36         0.0000     -0.2516      0.0000
        37         0.0000     -0.0240      0.0000
        38        -0.0000     -0.0036      0.0000
        39         0.2480     -0.0000     -0.0416
        40        -0.0581      0.0001      0.1608
        41        -0.0603      0.0000     -0.3044
        42        -0.0000     -0.2970     -0.0000
        43         0.0001     -0.0004     -0.0000
        44        -0.0246      0.0000      0.1786
        45        -0.0000     -0.0115      0.0002
        46        -0.0871     -0.0001      0.2289
        47         0.0003     -0.1754      0.0001
        48         0.0350     -0.0001     -1.1215
        49        -0.6927     -0.0001     -0.0656
        50        -0.0001      0.4645     -0.0002
        51         0.0000      0.0292      0.0000
        52        -0.3042      0.0000      1.5792
        53        -0.0040      0.0775     -0.0059
        54         0.2583      0.0012      0.3339
        55        -0.0001     -0.0485     -0.0005
        56         0.0000     -0.0874     -0.0000
        57        -0.0001     -0.3096      0.0005
        58         0.0010     -0.4494     -0.0049
        59         0.0810      0.0048     -0.4219
        60        -0.4064     -0.0001     -0.0625
        61        -0.0002      0.0605     -0.0004
        62         0.0023      0.0004      0.2396
        63         0.0001     -0.2524      0.0004
        64         0.0232      0.0000      2.0075
        65        -0.2394     -0.0001     -1.1999
        66        -0.2778      0.0001      3.6874
        67         0.0024      0.0001      1.2927
        68        -0.0001     -0.3483      0.0002
        69         0.0007     -0.2684     -0.0008
        70         0.4278      0.0003     -0.4767
        71         0.1330      0.0001     -0.3516
        72        -0.0000      0.0312     -0.0001
        73         0.0460      0.0003     -0.8594
        74         0.0008     -0.0847     -0.0048
        75         0.3467      0.0001     -0.5811
        76         0.4528      0.0001      0.5098
        77         0.0000     -0.3227      0.0001
        78        -0.0001     -0.2636      0.0000
        79         0.0001     -0.2380     -0.0003
        80        -0.0108      0.0001      0.9899
        81         0.0001     -0.2948      0.0007
        82         0.0000      0.0907     -0.0003
        83        -0.1880     -0.0000     -0.0326
        84        -0.0000      0.1536      0.0002
        85         0.0229     -0.0001      0.1305
        86        -0.0000     -0.1321      0.0001
        87        -0.2010      0.0001      0.3240
        88        -0.0000     -0.1700      0.0001
        89        -0.0406     -0.0001      0.0927
        90         0.0001      0.0299     -0.0002
        91        -0.0001     -0.0416      0.0001
        92        -0.1830      0.0001      0.2950
        93        -0.0000      0.2188      0.0000
        94         0.1633     -0.0001     -0.3296
        95         0.1299      0.0002     -0.3013
        96         0.0000      0.3403     -0.0002
        97         0.0001     -0.1432     -0.0011
        98         0.0974     -0.0000     -0.8512
        99         0.1401      0.0001      0.0139
       100         0.2318     -0.0000     -0.8589
       101        -0.0000     -0.1122      0.0006
       102        -0.1392      0.0001     -0.1974
       103         0.0001      0.2152     -0.0002
       104         0.1337      0.0001     -0.1844
       105        -0.0000      0.2755      0.0001
       106        -0.0000      0.9165     -0.0000
       107        -0.1234     -0.0001     -0.2844
       108         0.0000      0.4510     -0.0001
       109        -0.0000     -0.0429      0.0001
       110        -0.2134      0.0000     -0.4085
       111         0.0000     -0.4133      0.0000
       112         0.0000     -0.2862     -0.0004
       113        -0.0001     -0.3170      0.0001
       114        -0.0000      0.0690     -0.0002
       115        -0.0115      0.0000     -0.2935
       116         0.1685      0.0001      0.7522
       117        -0.0034     -0.0008     -0.3450
       118         0.0000     -0.5414      0.0005
       119         0.0126      0.7934      0.0012
       120         0.4498     -0.0223      0.0436
       121        -0.0018      0.1680     -0.0014
       122         0.3893      0.0007      0.1783
       123         0.0016      0.0137      0.0008
       124        -0.0803     -0.0000      0.0254
       125         0.1664      0.0004     -0.3393
       126        -0.0003      0.2091      0.0009
       127         0.0001      0.4332     -0.0000
       128         0.4317     -0.0002      0.4969
       129        -0.2223      0.0002     -0.5037
       130         0.4784     -0.0000      0.0055
       131         0.1583      0.0006      0.0856
       132         0.0002     -0.2232     -0.0002
       133         0.0000      0.2737     -0.0002
       134         0.0011      0.0872     -0.0006
       135         0.2412     -0.0002      0.0563
       136        -0.2645      0.0002      0.3023
       137        -0.0324      0.0002      0.2639
       138        -0.0007     -0.4697     -0.0085
       139         0.0333     -0.0088      0.4625
       140         0.1294     -0.0001      0.0022
       141         0.2357     -0.0003     -0.6831
       142         0.0001      0.4121     -0.0000
       143        -0.0530     -0.0000     -0.5191
       144        -0.0001      0.1911     -0.0000
       145         0.0001      0.2377     -0.0005
       146         0.1075     -0.0002     -0.0780
       147         0.0752      0.0001      0.3871
       148        -0.2648      0.0004      0.4047
       149         0.0002      0.4446     -0.0003
       150        -0.0001      0.2239      0.0005
 Ground to excited state transition velocity quadrupole moments (Au):
       state          XX          YY          ZZ          XY          XZ          YZ
         1        -0.0000      0.0000     -0.0000     -0.4981      0.0000     -0.0316
         2        -0.0000      0.0000      0.0000      0.0077     -0.0000     -0.0334
         3         0.1209     -0.0751     -0.0071     -0.0000      0.0067      0.0000
         4        -0.0000      0.0000     -0.0000      0.2957     -0.0000     -0.0214
         5        -2.0606      0.2397      0.0052     -0.0000     -0.0987     -0.0000
         6        -0.0001      0.0000     -0.0000      0.5148     -0.0000      0.0029
         7         1.7766      0.0667      0.0069     -0.0000      0.0434     -0.0000
         8        -1.4463     -0.1006      0.0018      0.0000     -0.0183      0.0000
         9         0.1930     -0.0009     -0.0007      0.0001      0.0738     -0.0000
        10        -0.0001     -0.0000      0.0000     -0.8924      0.0000      0.0173
        11         0.1996      0.0169      0.0053      0.0001     -0.0607      0.0000
        12         0.0000      0.0000     -0.0000      0.1474      0.0000      0.0253
        13         0.0001      0.0000     -0.0000     -0.7528      0.0000     -0.0180
        14         0.0265     -0.0410      0.0116      0.0000      0.0266      0.0000
        15         4.6434      0.2327     -0.0477     -0.0009      0.0617     -0.0000
        16         0.0016      0.0001     -0.0000      2.3590     -0.0000      0.0140
        17        -0.0013     -0.0001      0.0000     -0.3361     -0.0000      0.0182
        18         0.5466      0.3859     -0.0126      0.0000     -0.0536     -0.0000
        19        -1.4532     -0.3522      0.0040      0.0003     -0.0318     -0.0002
        20         1.3145      0.5740     -0.0100      0.0002     -0.0833     -0.0002
        21         0.1580      0.1967     -0.0199     -0.0002     -0.0384     -0.0000
        22        -0.0005      0.0000     -0.0000      0.2956     -0.0001      0.0638
        23         0.0004     -0.0000     -0.0000      0.6784      0.0000     -0.1884
        24         0.0000     -0.0001     -0.0000     -0.6062      0.0000     -0.1072
        25         0.0001     -0.0000     -0.0000      0.6058     -0.0000      0.0333
        26         0.0011     -0.0002     -0.0000     -0.2251      0.0001     -0.1063
        27         7.7134     -1.0007     -0.0238      0.0000      0.3083      0.0000
        28        -2.6968      0.1603      0.0159     -0.0001     -0.0831      0.0000
        29        -0.0002      0.0001      0.0000     -0.5872      0.0000     -0.1002
        30        -0.0002     -0.0000      0.0000      1.5981     -0.0001     -0.0398
        31        -0.0005      0.0001      0.0000     -0.3842     -0.0000     -0.1960
        32        -0.0001      0.0000     -0.0000      2.4272     -0.0001     -0.0705
        33         0.0001     -0.0000     -0.0000      0.6943     -0.0000      0.0177
[...]
    25  H   -0.053066   0.011720  -0.004764  -0.000000   0.000000  -0.000000
    26  H    0.442881  -0.052835   0.012732  -0.000000   0.000000  -0.000000
    27  H   -0.050347   0.436013  -0.052031  -0.000000  -0.000000   0.000000
    28  H    0.008091  -0.036311   0.433133   0.000000   0.000000  -0.000000
    29  H    0.000000  -0.000000   0.000000   0.446252  -0.053067   0.011720
    30  H    0.000000  -0.000000   0.000000  -0.058229   0.442881  -0.052835
    31  H   -0.000000   0.000000  -0.000000   0.010782  -0.050347   0.436012
    32  H    0.000000  -0.000000   0.000000  -0.001528   0.008091  -0.036311
    33  H    0.000024  -0.000117   0.001408   0.000000  -0.000000   0.000000
    34  H   -0.000286   0.002876   0.005193  -0.000000   0.000000  -0.000000
    35  H    0.000036   0.000009   0.003512   0.000000  -0.000000   0.000000
    36  H   -0.000007   0.000034   0.000271  -0.000000   0.000000  -0.000000
    37  H    0.000002  -0.000014  -0.000051  -0.000000   0.000000   0.000000
    38  H   -0.000000   0.000000  -0.000001  -0.000043   0.000024  -0.000117
    39  H    0.000000  -0.000000   0.000000   0.000304  -0.000286   0.002874
    40  H   -0.000000   0.000000  -0.000000  -0.000044   0.000036   0.000010
    41  H    0.000000  -0.000000   0.000000   0.000022  -0.000007   0.000034
    42  H    0.000000   0.000000   0.000000  -0.000003   0.000002  -0.000014
              19         20         21         22         23         24
     1  C   -0.000006  -0.055221  -0.000417   0.005538   0.001719  -0.021563
     2  C   -0.000580  -0.001922  -0.001278  -0.001919  -0.001273   0.390293
     3  C    0.002856   0.005549   0.001715  -0.055228  -0.000422  -0.021536
     4  N   -0.075697   0.000087   0.000025   0.290643  -0.040371  -0.007327
     5  S    0.000041   0.004344  -0.000452   0.000002  -0.000012   0.004200
     6  C    0.000001   0.012281   0.000851   0.000010   0.000002  -0.000418
     7  C   -0.000000  -0.046575   0.002219  -0.000025   0.000004   0.000538
     8  N   -0.000001   0.290633  -0.040371   0.000087   0.000025  -0.007325
     9  S    0.024391   0.000002  -0.000012   0.004343  -0.000452   0.004200
    10  C    0.044288   0.000010   0.000002   0.012279   0.000850  -0.000418
    11  C    0.324171  -0.000025   0.000004  -0.046577   0.002219   0.000537
    12  C    0.000000   0.000208  -0.000019   0.000000  -0.000000   0.000020
    13  C   -0.000000  -0.000091   0.000007  -0.000000   0.000000   0.000000
    14  C    0.000000   0.000110   0.000260   0.000000  -0.000000  -0.000002
    15  C   -0.000000  -0.003194  -0.004427  -0.000001  -0.000000   0.000026
    16  C   -0.091605   0.000000  -0.000000   0.000209  -0.000019   0.000020
    17  C    0.046682  -0.000000   0.000000  -0.000091   0.000007   0.000000
    18  C    0.427644   0.000000  -0.000000   0.000110   0.000260  -0.000002
    19  C    5.215822  -0.000001  -0.000000  -0.003196  -0.004426   0.000026
    20  C   -0.000001   4.941193   0.337956  -0.000560  -0.000114   0.003234
    21  C   -0.000000   0.337956   4.968906  -0.000114   0.000074  -0.003521
    22  C   -0.003196  -0.000560  -0.000114   4.941214   0.337945   0.003236
    23  C   -0.004426  -0.000114   0.000074   0.337945   4.968926  -0.003521
    24  H    0.000026   0.003234  -0.003521   0.003236  -0.003521   0.440679
    25  H    0.000000   0.000020  -0.000001  -0.000000  -0.000000  -0.000000
    26  H    0.000000  -0.000003   0.000001  -0.000000  -0.000000   0.000000
    27  H   -0.000000  -0.000007   0.000002   0.000000   0.000000  -0.000000
    28  H    0.000000   0.002997  -0.001698  -0.000000   0.000000  -0.000010
    29  H   -0.004764  -0.000000  -0.000000   0.000020  -0.000001  -0.000000
    30  H    0.012732  -0.000000  -0.000000  -0.000003   0.000001   0.000000
    31  H   -0.052031   0.000000   0.000000  -0.000007   0.000002  -0.000000
    32  H    0.433130  -0.000000   0.000000   0.002998  -0.001699  -0.000010
    33  H   -0.000001   0.390289  -0.028658   0.000189   0.000228   0.002208
    34  H    0.000000   0.392853  -0.026500   0.000007  -0.000002   0.000281
    35  H   -0.000000  -0.034537   0.408882   0.000002  -0.000001   0.000328
    36  H    0.000000  -0.035365   0.411792  -0.000172   0.000007  -0.000229
    37  H    0.000000  -0.034451   0.404396   0.000022   0.000002   0.000136
    38  H    0.001409   0.000189   0.000228   0.390301  -0.028662   0.002205
    39  H    0.005197   0.000007  -0.000002   0.392845  -0.026498   0.000281
    40  H    0.003511   0.000002  -0.000001  -0.034531   0.408877   0.000328
    41  H    0.000271  -0.000172   0.000007  -0.035377   0.411799  -0.000228
    42  H   -0.000051   0.000022   0.000002  -0.034449   0.404393   0.000136
              25         26         27         28         29         30
     1  C    0.000189   0.000010   0.000022  -0.000722   0.000006  -0.000000
     2  C   -0.000038   0.000000  -0.000002   0.000034  -0.000038   0.000000
     3  C    0.000006  -0.000000   0.000000   0.000008   0.000189   0.000010
     4  N   -0.000000  -0.000000  -0.000000  -0.000000  -0.000030   0.000028
     5  S   -0.004462  -0.000239   0.000026  -0.000255  -0.000030  -0.000000
     6  C   -0.065649   0.012821  -0.002224   0.007988  -0.000000  -0.000000
     7  C    0.017990  -0.003451   0.012136  -0.047601   0.000000   0.000000
     8  N   -0.000030   0.000028  -0.000113  -0.003193  -0.000000  -0.000000
     9  S   -0.000030  -0.000000  -0.000000   0.000000  -0.004462  -0.000239
    10  C   -0.000000  -0.000000  -0.000000   0.000000  -0.065650   0.012821
    11  C    0.000000   0.000000   0.000000  -0.000000   0.017991  -0.003451
    12  C    0.446251  -0.058229   0.010782  -0.001528  -0.000000  -0.000000
    13  C   -0.053066   0.442881  -0.050347   0.008091   0.000000   0.000000
    14  C    0.011720  -0.052835   0.436013  -0.036311  -0.000000  -0.000000
    15  C   -0.004764   0.012732  -0.052031   0.433133   0.000000   0.000000
    16  C   -0.000000  -0.000000  -0.000000   0.000000   0.446252  -0.058229
    17  C    0.000000   0.000000  -0.000000   0.000000  -0.053067   0.442881
    18  C   -0.000000  -0.000000   0.000000  -0.000000   0.011720  -0.052835
    19  C    0.000000   0.000000  -0.000000   0.000000  -0.004764   0.012732
    20  C    0.000020  -0.000003  -0.000007   0.002997  -0.000000  -0.000000
    21  C   -0.000001   0.000001   0.000002  -0.001698  -0.000000  -0.000000
    22  C   -0.000000  -0.000000   0.000000  -0.000000   0.000020  -0.000003
    23  C   -0.000000  -0.000000   0.000000   0.000000  -0.000001   0.000001
    24  H   -0.000000   0.000000  -0.000000  -0.000010  -0.000000   0.000000
    25  H    0.481834  -0.006952  -0.000137   0.000021  -0.000000  -0.000000
    26  H   -0.006952   0.491465  -0.006794  -0.000106  -0.000000  -0.000000
    27  H   -0.000137  -0.006794   0.489370  -0.006429   0.000000   0.000000
    28  H    0.000021  -0.000106  -0.006429   0.466277  -0.000000  -0.000000
    29  H   -0.000000  -0.000000   0.000000  -0.000000   0.481834  -0.006952
    30  H   -0.000000  -0.000000   0.000000  -0.000000  -0.006952   0.491465
    31  H    0.000000   0.000000  -0.000000   0.000000  -0.000137  -0.006794
    32  H   -0.000000  -0.000000   0.000000   0.000000   0.000021  -0.000106
    33  H   -0.000001  -0.000000  -0.000001   0.000388   0.000000  -0.000000
    34  H    0.000003  -0.000001  -0.000013  -0.000470  -0.000000   0.000000
    35  H   -0.000000  -0.000000  -0.000003   0.000619   0.000000  -0.000000
    36  H    0.000000  -0.000000  -0.000000   0.000030  -0.000000   0.000000
    37  H    0.000000  -0.000000   0.000000   0.000140   0.000000   0.000000
    38  H    0.000000  -0.000000   0.000000  -0.000000  -0.000001  -0.000000
    39  H   -0.000000   0.000000  -0.000000  -0.000000   0.000003  -0.000001
    40  H    0.000000  -0.000000   0.000000  -0.000000  -0.000000  -0.000000
    41  H   -0.000000   0.000000  -0.000000  -0.000000   0.000000  -0.000000
    42  H    0.000000   0.000000   0.000000  -0.000000   0.000000  -0.000000
              31         32         33         34         35         36
     1  C    0.000000   0.000008  -0.030672   0.008122  -0.000506   0.000568
     2  C   -0.000002   0.000034   0.017598  -0.000326   0.000213   0.003027
     3  C    0.000022  -0.000723   0.005123  -0.000133  -0.000028   0.000200
     4  N   -0.000113  -0.003194  -0.000088  -0.000001  -0.000001   0.000010
     5  S   -0.000000   0.000000  -0.000009  -0.000434  -0.000015  -0.000213
     6  C   -0.000000   0.000000  -0.000478  -0.000599   0.000079  -0.000097
     7  C    0.000000  -0.000000   0.008135  -0.019553   0.000572  -0.001135
     8  N   -0.000000  -0.000000  -0.019536  -0.017719  -0.001332  -0.000740
     9  S    0.000026  -0.000255  -0.000037   0.000001   0.000000  -0.000008
    10  C   -0.002224   0.007987   0.000014  -0.000000   0.000000  -0.000000
    11  C    0.012136  -0.047596  -0.000019   0.000000  -0.000000   0.000005
    12  C   -0.000000   0.000000  -0.000043   0.000304  -0.000044   0.000022
    13  C   -0.000000   0.000000   0.000024  -0.000286   0.000036  -0.000007
    14  C    0.000000  -0.000000  -0.000117   0.002876   0.000009   0.000034
    15  C   -0.000000   0.000000   0.001408   0.005193   0.003512   0.000271
    16  C    0.010782  -0.001528   0.000000  -0.000000   0.000000  -0.000000
    17  C   -0.050347   0.008091  -0.000000   0.000000  -0.000000   0.000000
    18  C    0.436012  -0.036311   0.000000  -0.000000   0.000000  -0.000000
    19  C   -0.052031   0.433130  -0.000001   0.000000  -0.000000   0.000000
    20  C    0.000000  -0.000000   0.390289   0.392853  -0.034537  -0.035365
    21  C    0.000000   0.000000  -0.028658  -0.026500   0.408882   0.411792
    22  C   -0.000007   0.002998   0.000189   0.000007   0.000002  -0.000172
    23  C    0.000002  -0.001699   0.000228  -0.000002  -0.000001   0.000007
    24  H   -0.000000  -0.000010   0.002208   0.000281   0.000328  -0.000229
    25  H    0.000000  -0.000000  -0.000001   0.000003  -0.000000   0.000000
    26  H    0.000000  -0.000000  -0.000000  -0.000001  -0.000000  -0.000000
    27  H   -0.000000   0.000000  -0.000001  -0.000013  -0.000003  -0.000000
    28  H    0.000000   0.000000   0.000388  -0.000470   0.000619   0.000030
    29  H   -0.000137   0.000021   0.000000  -0.000000   0.000000  -0.000000
    30  H   -0.006794  -0.000106  -0.000000   0.000000  -0.000000   0.000000
    31  H    0.489370  -0.006429   0.000000  -0.000000   0.000000  -0.000000
    32  H   -0.006429   0.466271  -0.000000  -0.000000  -0.000000  -0.000000
    33  H    0.000000  -0.000000   0.506055  -0.019751   0.004653  -0.004690
    34  H   -0.000000  -0.000000  -0.019751   0.504815  -0.005231   0.004512
    35  H    0.000000  -0.000000   0.004653  -0.005231   0.508455  -0.022144
    36  H   -0.000000  -0.000000  -0.004690   0.004512  -0.022144   0.507144
    37  H    0.000000  -0.000000  -0.001251  -0.001374  -0.019167  -0.019621
    38  H   -0.000001   0.000388  -0.000196  -0.000007   0.000004   0.000568
    39  H   -0.000013  -0.000469  -0.000007  -0.000000  -0.000000   0.000002
    40  H   -0.000003   0.000619   0.000004  -0.000000   0.000000  -0.000000
    41  H   -0.000000   0.000030   0.000568   0.000002  -0.000000  -0.000007
    42  H    0.000000   0.000140  -0.000061  -0.000001   0.000000   0.000003
              37         38         39         40         41         42
     1  C    0.000267   0.005117  -0.000132  -0.000028   0.000203  -0.000019
     2  C   -0.000388   0.017598  -0.000325   0.000212   0.003026  -0.000388
     3  C   -0.000019  -0.030663   0.008121  -0.000505   0.000566   0.000267
     4  N   -0.000000  -0.019541  -0.017719  -0.001332  -0.000738   0.005708
     5  S    0.000019  -0.000037   0.000001   0.000000  -0.000008   0.000001
     6  C   -0.000013   0.000014  -0.000000   0.000000  -0.000000  -0.000000
     7  C   -0.000041  -0.000019   0.000000  -0.000000   0.000005   0.000000
     8  N    0.005709  -0.000088  -0.000001  -0.000001   0.000010  -0.000000
     9  S    0.000001  -0.000008  -0.000434  -0.000015  -0.000213   0.000019
    10  C   -0.000000  -0.000477  -0.000599   0.000079  -0.000097  -0.000013
    11  C    0.000000   0.008135  -0.019553   0.000571  -0.001134  -0.000040
    12  C   -0.000003   0.000000  -0.000000   0.000000  -0.000000  -0.000000
    13  C    0.000002  -0.000000   0.000000  -0.000000   0.000000   0.000000
    14  C   -0.000014   0.000000  -0.000000   0.000000  -0.000000   0.000000
    15  C   -0.000051  -0.000001   0.000000  -0.000000   0.000000   0.000000
    16  C   -0.000000  -0.000043   0.000304  -0.000044   0.000022  -0.000003
    17  C    0.000000   0.000024  -0.000286   0.000036  -0.000007   0.000002
    18  C    0.000000  -0.000117   0.002874   0.000010   0.000034  -0.000014
    19  C    0.000000   0.001409   0.005197   0.003511   0.000271  -0.000051
    20  C   -0.034451   0.000189   0.000007   0.000002  -0.000172   0.000022
    21  C    0.404396   0.000228  -0.000002  -0.000001   0.000007   0.000002
    22  C    0.000022   0.390301   0.392845  -0.034531  -0.035377  -0.034449
    23  C    0.000002  -0.028662  -0.026498   0.408877   0.411799   0.404393
    24  H    0.000136   0.002205   0.000281   0.000328  -0.000228   0.000136
    25  H    0.000000   0.000000  -0.000000   0.000000  -0.000000   0.000000
    26  H   -0.000000  -0.000000   0.000000  -0.000000   0.000000   0.000000
    27  H    0.000000   0.000000  -0.000000   0.000000  -0.000000   0.000000
    28  H    0.000140  -0.000000  -0.000000  -0.000000  -0.000000  -0.000000
    29  H    0.000000  -0.000001   0.000003  -0.000000   0.000000   0.000000
    30  H    0.000000  -0.000000  -0.000001  -0.000000  -0.000000  -0.000000
    31  H    0.000000  -0.000001  -0.000013  -0.000003  -0.000000   0.000000
    32  H   -0.000000   0.000388  -0.000469   0.000619   0.000030   0.000140
    33  H   -0.001251  -0.000196  -0.000007   0.000004   0.000568  -0.000061
    34  H   -0.001374  -0.000007  -0.000000  -0.000000   0.000002  -0.000001
    35  H   -0.019167   0.000004  -0.000000   0.000000  -0.000000   0.000000
    36  H   -0.019621   0.000568   0.000002  -0.000000  -0.000007   0.000003
    37  H    0.508542  -0.000061  -0.000001   0.000000   0.000003  -0.000002
    38  H   -0.000061   0.506049  -0.019746   0.004653  -0.004688  -0.001251
    39  H   -0.000001  -0.019746   0.504809  -0.005231   0.004511  -0.001372
    40  H    0.000000   0.004653  -0.005231   0.508456  -0.022145  -0.019167
    41  H    0.000003  -0.004688   0.004511  -0.022145   0.507142  -0.019621
    42  H   -0.000002  -0.001251  -0.001372  -0.019167  -0.019621   0.508545
 Mulliken charges:
               1
     1  C    0.146282
     2  C   -0.398211
     3  C    0.146260
     4  N    0.115063
     5  S    0.025931
     6  C    0.032797
     7  C    0.171590
     8  N    0.115057
     9  S    0.025933
    10  C    0.032799
    11  C    0.171584
    12  C   -0.206666
    13  C   -0.165534
    14  C   -0.122901
    15  C   -0.309811
    16  C   -0.206661
    17  C   -0.165532
    18  C   -0.122905
    19  C   -0.309810
    20  C   -0.169750
    21  C   -0.429858
    22  C   -0.169750
    23  C   -0.429866
    24  H    0.213202
    25  H    0.177098
    26  H    0.168671
    27  H    0.169751
    28  H    0.178599
    29  H    0.177098
    30  H    0.168671
    31  H    0.169751
    32  H    0.178604
    33  H    0.168729
    34  H    0.173432
    35  H    0.155643
    36  H    0.156234
    37  H    0.157219
    38  H    0.168728
    39  H    0.173434
    40  H    0.155643
    41  H    0.156235
    42  H    0.157217
 Sum of Mulliken charges =   1.00000
 Mulliken charges with hydrogens summed into heavy atoms:
               1
     1  C    0.146282
     2  C   -0.185009
     3  C    0.146260
     4  N    0.115063
     5  S    0.025931
     6  C    0.032797
     7  C    0.171590
     8  N    0.115057
     9  S    0.025933
    10  C    0.032799
    11  C    0.171584
    12  C   -0.029568
    13  C    0.003138
    14  C    0.046850
    15  C   -0.131212
    16  C   -0.029564
    17  C    0.003140
    18  C    0.046846
    19  C   -0.131206
    20  C    0.172411
    21  C    0.039238
    22  C    0.172411
    23  C    0.039229
 Electronic spatial extent (au):  <R**2>=          10364.5482
 Charge=              1.0000 electrons
 Dipole moment (field-independent basis, Debye):
    X=              0.0001    Y=              5.3628    Z=              0.0001  Tot=              5.3628
 Quadrupole moment (field-independent basis, Debye-Ang):
   XX=            -67.2132   YY=           -107.6482   ZZ=           -153.5024
   XY=             -0.0003   XZ=              2.2139   YZ=             -0.0005
 Traceless Quadrupole moment (field-independent basis, Debye-Ang):
   XX=             42.2414   YY=              1.8064   ZZ=            -44.0478
   XY=             -0.0003   XZ=              2.2139   YZ=             -0.0005
 Octapole moment (field-independent basis, Debye-Ang**2):
  XXX=              0.0020  YYY=             23.1937  ZZZ=              0.0004  XYY=             -0.0004
  XXY=              1.0158  XXZ=              0.0025  XZZ=             -0.0002  YZZ=             14.7582
  YYZ=              0.0018  XYZ=              6.9796
 Hexadecapole moment (field-independent basis, Debye-Ang**3):
 XXXX=          -8455.5542 YYYY=          -2297.1366 ZZZZ=           -335.0088 XXXY=             -0.0066
 XXXZ=             80.0322 YYYX=             -0.0083 YYYZ=             -0.0035 ZZZX=            -10.3442
 ZZZY=              0.0014 XXYY=          -1808.4169 XXZZ=          -2120.0865 YYZZ=           -515.1275
 XXYZ=             -0.0144 YYXZ=              1.7718 ZZXY=              0.0002
 N-N= 2.127852619795D+03 E-N=-8.084736889111D+03  KE= 1.634174783823D+03
 Unable to Open any file for archive entry.
 1\1\GINC-CN05\SP\RPBE1PBE TD-FC\def2TZVP\C19H19N2S2(1+)\2100011873\04-
 Nov-2023\0\\# td=(nstates=150) PBE1PBE/def2TZVP scrf(smd, solvent=etha
 nol)\\A-1\\1,1\C,0,-1.259214,0.216698,-0.039367\C,0,0.000003,0.828935,
 -0.000122\C,0,1.259209,0.216684,0.039249\N,0,2.433464,0.904848,0.14599
 8\S,0,-1.557561,-1.512152,0.053882\C,0,-3.297665,-1.258824,-0.027283\C
 ,0,-3.589904,0.108866,-0.118299\N,0,-2.433474,0.904863,-0.146106\S,0,1
 .557549,-1.512171,-0.053923\C,0,3.297657,-1.25885,0.027304\C,0,3.5899,
 0.108842,0.118251\C,0,-4.301571,-2.224422,-0.003624\C,0,-5.624645,-1.7
 92125,-0.066975\C,0,-5.925643,-0.425687,-0.149009\C,0,-4.920394,0.5382
 74,-0.174272\C,0,4.301563,-2.22445,0.003718\C,0,5.624635,-1.792149,0.0
 67066\C,0,5.925635,-0.425707,0.149021\C,0,4.920384,0.538258,0.174213\C
 ,0,-2.510348,2.373529,-0.257226\C,0,-2.566433,3.073786,1.101522\C,0,2.
 510339,2.373497,0.257299\C,0,2.566508,3.073929,-1.101357\H,0,0.000014,
 1.90904,-0.000214\H,0,-4.060576,-3.280313,0.063971\H,0,-6.427238,-2.52
 2132,-0.049094\H,0,-6.962056,-0.106514,-0.191342\H,0,-5.176748,1.59021
 3,-0.22813\H,0,4.060566,-3.280345,-0.063815\H,0,6.42723,-2.522156,0.04
 9231\H,0,6.962048,-0.106532,0.191339\H,0,5.176733,1.590201,0.228019\H,
 0,-1.657488,2.708489,-0.852128\H,0,-3.398115,2.597174,-0.852215\H,0,-3
 .441185,2.752064,1.674572\H,0,-1.673838,2.863356,1.699082\H,0,-2.63423
 ,4.156364,0.954302\H,0,1.657436,2.708379,0.852183\H,0,3.398074,2.59705
 9,0.85237\H,0,3.441334,2.752344,-1.674368\H,0,1.673988,2.86351,-1.6990
 33\H,0,2.634214,4.156493,-0.95399\\Version=ES64L-G16RevC.02\State=1-A\
 HF=-1640.3022981\RMSD=8.890e-09\PG=C01 [X(C19H19N2S2)]\\@
 The archive entry for this job was punched.


 THERE IS NOTHING NOBLE IN BEING SUPERIOR TO SOME OTHER MAN.
 TRUE NOBILITY IS BEING SUPERIOR TO YOUR FORMER SELF.

                                                   -- HINDU PROVERB
 Job cpu time:       2 days 16 hours 57 minutes 31.6 seconds.
 Elapsed time:       0 days  1 hours 53 minutes 48.2 seconds.
 File lengths (MBytes):  RWF=  28848 Int=      0 D2E=      0 Chk=   2880 Scr=     32
 Normal termination of Gaussian 16 at Sat Nov  4 21:23:20 2023.
