 Entering Gaussian System, Link 0=g16
 Initial command:
 /nfs-share/home/2100011873/Gaussian16_AVX2/g16/l1.exe "/nfs-share/home/2100011873/GaussTmp/Gau-197946.inp" -scrdir="/nfs-share/home/2100011873/GaussTmp/"
 Entering Link 1 = /nfs-share/home/2100011873/Gaussian16_AVX2/g16/l1.exe PID=    197947.
  
 Copyright (c) 1988-2021, Gaussian, Inc.  All Rights Reserved.
  
 This is part of the Gaussian(R) 16 program.  It is based on
 the Gaussian(R) 09 system (copyright 2009, Gaussian, Inc.),
 the Gaussian(R) 03 system (copyright 2003, Gaussian, Inc.),
 the Gaussian(R) 98 system (copyright 1998, Gaussian, Inc.),
 the Gaussian(R) 94 system (copyright 1995, Gaussian, Inc.),
 the Gaussian 92(TM) system (copyright 1992, Gaussian, Inc.),
 the Gaussian 90(TM) system (copyright 1990, Gaussian, Inc.),
 the Gaussian 88(TM) system (copyright 1988, Gaussian, Inc.),
 the Gaussian 86(TM) system (copyright 1986, Carnegie Mellon
 University), and the Gaussian 82(TM) system (copyright 1983,
 Carnegie Mellon University). Gaussian is a federally registered
 trademark of Gaussian, Inc.
  
 This software contains proprietary and confidential information,
 including trade secrets, belonging to Gaussian, Inc.
  
 This software is provided under written license and may be
 used, copied, transmitted, or stored only in accord with that
 written license.
  
 The following legend is applicable only to US Government
 contracts under FAR:
  
                    RESTRICTED RIGHTS LEGEND
  
 Use, reproduction and disclosure by the US Government is
 subject to restrictions as set forth in subparagraphs (a)
 and (c) of the Commercial Computer Software - Restricted
 Rights clause in FAR 52.227-19.
  
 Gaussian, Inc.
 340 Quinnipiac St., Bldg. 40, Wallingford CT 06492
  
  
 ---------------------------------------------------------------
 Warning -- This program may not be used in any manner that
 competes with the business of Gaussian, Inc. or will provide
 assistance to any competitor of Gaussian, Inc.  The licensee
 of this program is prohibited from giving any competitor of
 Gaussian, Inc. access to this program.  By using this program,
 the user acknowledges that Gaussian, Inc. is engaged in the
 business of creating and licensing software in the field of
 computational chemistry and represents and warrants to the
 licensee that it is not a competitor of Gaussian, Inc. and that
 it will not use this program in any manner prohibited above.
 ---------------------------------------------------------------
  

 Cite this work as:
 Gaussian 16, Revision C.02,
 M. J. Frisch, G. W. Trucks, H. B. Schlegel, G. E. Scuseria, 
 M. A. Robb, J. R. Cheeseman, G. Scalmani, V. Barone, 
 G. A. Petersson, H. Nakatsuji, X. Li, M. Caricato, A. V. Marenich, 
 J. Bloino, B. G. Janesko, R. Gomperts, B. Mennucci, H. P. Hratchian, 
 J. V. Ortiz, A. F. Izmaylov, J. L. Sonnenberg, D. Williams-Young, 
 F. Ding, F. Lipparini, F. Egidi, J. Goings, B. Peng, A. Petrone, 
 T. Henderson, D. Ranasinghe, V. G. Zakrzewski, J. Gao, N. Rega, 
 G. Zheng, W. Liang, M. Hada, M. Ehara, K. Toyota, R. Fukuda, 
 J. Hasegawa, M. Ishida, T. Nakajima, Y. Honda, O. Kitao, H. Nakai, 
 T. Vreven, K. Throssell, J. A. Montgomery, Jr., J. E. Peralta, 
 F. Ogliaro, M. J. Bearpark, J. J. Heyd, E. N. Brothers, K. N. Kudin, 
 V. N. Staroverov, T. A. Keith, R. Kobayashi, J. Normand, 
 K. Raghavachari, A. P. Rendell, J. C. Burant, S. S. Iyengar, 
 J. Tomasi, M. Cossi, J. M. Millam, M. Klene, C. Adamo, R. Cammi, 
 J. W. Ochterski, R. L. Martin, K. Morokuma, O. Farkas, 
 J. B. Foresman, and D. J. Fox, Gaussian, Inc., Wallingford CT, 2019.
 
 ******************************************
 Gaussian 16:  ES64L-G16RevC.02  7-Dec-2021
                 5-Nov-2023 
 ******************************************
 %nprocshared=36
 Will use up to   36 processors via shared memory.
 %mem=128GB
 --------------------------------------------------------------
 # td=(nstates=150) PBE1PBE/def2TZVP scrf(smd, solvent=ethanol)
 --------------------------------------------------------------
 1/38=1,172=1/1;
 2/12=2,17=6,18=5,40=1/2;
 3/5=44,7=101,11=9,25=1,30=1,70=32201,72=4,74=-13/1,2,3,8;
 4//1;
 5/5=2,38=5,53=4/2;
 8/6=1,10=1,108=150/1;
 9/41=150,42=1,70=2/14;
 6/7=2,8=2,9=2,10=2/1;
 99/5=1,9=1/99;
 ---
 A-4
 ---
 Symbolic Z-matrix:
 Charge =  1 Multiplicity = 1
 C                    -3.66371  -1.05195  -0.11156 
 C                    -2.38964  -0.47998  -0.08346 
 C                    -1.19497  -1.195    -0.06404 
 C                     0.05835  -0.57832  -0.03561 
 C                    -4.85534  -0.32376  -0.12489 
 S                    -4.92666   1.43671  -0.06062 
 C                    -6.68823   1.40203  -0.08329 
 C                    -7.15496   0.07936  -0.13945 
 N                    -6.11186  -0.85727  -0.18359 
 C                    -7.56515   2.4827   -0.04892 
 C                    -8.93496   2.22022  -0.06579 
 C                    -9.40707   0.90276  -0.11322 
 C                    -8.52936  -0.17953  -0.14882 
 C                    -6.36628  -2.30687  -0.24831 
 C                    -6.46714  -2.95588   1.13326 
 C                     1.28216  -1.24609  -0.01605 
 C                     2.51113  -0.58289   0.01194 
 C                     3.74122  -1.24435  -0.00844 
 C                     5.05244  -0.74902   0.00881 
 S                     6.36259  -1.86699  -0.36529 
 C                     7.56298  -0.60081  -0.16552 
 C                     6.94102   0.61236   0.16985 
 N                     5.54483   0.4953    0.28326 
 C                     8.94627  -0.69554  -0.30211 
 C                     9.70836   0.45414  -0.1007 
 C                     9.09298   1.66866   0.22877 
 C                     7.70945   1.76455   0.3665 
 C                     4.73281   1.62303   0.77014 
 C                     4.28228   2.56989  -0.34424 
 H                    -3.73183  -2.13483  -0.11343 
 H                    -2.31025   0.60799  -0.07629 
 H                    -1.23762  -2.28343  -0.07261 
 H                     0.07916   0.51298  -0.02766 
 H                    -7.19294   3.50135  -0.00844 
 H                    -9.63821   3.04629  -0.03843 
 H                    -10.47604   0.71486  -0.1197 
 H                    -8.91454  -1.19267  -0.17489 
 H                    -7.28921  -2.44204  -0.81662 
 H                    -5.57073  -2.7575   -0.84565 
 H                    -6.66636  -4.02676   1.02338 
 H                    -5.53664  -2.83556   1.69652 
 H                    -7.28005  -2.51465   1.718 
 H                     1.27987  -2.33528  -0.02423 
 H                     2.47239   0.50228   0.01364 
 H                     3.69108  -2.32677  -0.1054 
 H                     9.41663  -1.63929  -0.55871 
 H                     10.78759   0.40544  -0.2035 
 H                     9.70031   2.55586   0.37729 
 H                     7.25129   2.71614   0.61119 
 H                     3.88711   1.20264   1.31689 
 H                     5.34278   2.15493   1.50515 
 H                     3.66872   2.05491  -1.08995 
 H                     3.6925    3.38719   0.08394 
 H                     5.14149   3.00595  -0.86259 
 
 Stoichiometry    C25H25N2S2(1+)
 Framework group  C1[X(C25H25N2S2)]
 Deg. of freedom   156
 Full point group                 C1      NOp   1
 Largest Abelian subgroup         C1      NOp   1
 Largest concise Abelian subgroup C1      NOp   1
                         Standard orientation:                         
 ---------------------------------------------------------------------
 Center     Atomic      Atomic             Coordinates (Angstroms)
 Number     Number       Type             X           Y           Z
 ---------------------------------------------------------------------
      1          6           0       -3.663712   -1.051948   -0.111557
      2          6           0       -2.389638   -0.479979   -0.083458
      3          6           0       -1.194967   -1.195004   -0.064041
      4          6           0        0.058349   -0.578322   -0.035613
      5          6           0       -4.855344   -0.323764   -0.124892
      6         16           0       -4.926662    1.436711   -0.060618
      7          6           0       -6.688233    1.402029   -0.083292
      8          6           0       -7.154955    0.079357   -0.139452
      9          7           0       -6.111858   -0.857268   -0.183590
     10          6           0       -7.565153    2.482703   -0.048916
     11          6           0       -8.934956    2.220220   -0.065794
     12          6           0       -9.407072    0.902760   -0.113224
     13          6           0       -8.529361   -0.179533   -0.148820
     14          6           0       -6.366284   -2.306872   -0.248314
     15          6           0       -6.467137   -2.955883    1.133259
     16          6           0        1.282162   -1.246091   -0.016052
     17          6           0        2.511127   -0.582889    0.011938
     18          6           0        3.741215   -1.244345   -0.008435
     19          6           0        5.052439   -0.749020    0.008808
     20         16           0        6.362590   -1.866987   -0.365292
     21          6           0        7.562983   -0.600806   -0.165520
     22          6           0        6.941017    0.612357    0.169846
     23          7           0        5.544832    0.495298    0.283261
     24          6           0        8.946272   -0.695535   -0.302110
     25          6           0        9.708364    0.454142   -0.100703
     26          6           0        9.092982    1.668657    0.228770
     27          6           0        7.709445    1.764545    0.366500
     28          6           0        4.732809    1.623027    0.770139
     29          6           0        4.282282    2.569892   -0.344236
     30          1           0       -3.731831   -2.134826   -0.113428
     31          1           0       -2.310249    0.607987   -0.076294
     32          1           0       -1.237617   -2.283434   -0.072611
     33          1           0        0.079156    0.512977   -0.027655
     34          1           0       -7.192939    3.501353   -0.008437
     35          1           0       -9.638205    3.046285   -0.038434
     36          1           0      -10.476042    0.714855   -0.119701
     37          1           0       -8.914544   -1.192671   -0.174894
     38          1           0       -7.289207   -2.442036   -0.816617
     39          1           0       -5.570728   -2.757498   -0.845647
     40          1           0       -6.666359   -4.026758    1.023381
     41          1           0       -5.536643   -2.835556    1.696522
     42          1           0       -7.280055   -2.514652    1.717995
     43          1           0        1.279871   -2.335280   -0.024232
     44          1           0        2.472390    0.502280    0.013643
     45          1           0        3.691082   -2.326769   -0.105404
     46          1           0        9.416627   -1.639291   -0.558710
     47          1           0       10.787594    0.405440   -0.203502
     48          1           0        9.700309    2.555856    0.377290
     49          1           0        7.251286    2.716142    0.611187
     50          1           0        3.887111    1.202637    1.316886
     51          1           0        5.342782    2.154926    1.505154
     52          1           0        3.668719    2.054906   -1.089954
     53          1           0        3.692500    3.387191    0.083941
     54          1           0        5.141488    3.005946   -0.862588
 ---------------------------------------------------------------------
 Rotational constants (GHZ):           0.5052897           0.0306476           0.0290656
 Standard basis: def2TZVP (5D, 7F)
 There are  1206 symmetry adapted cartesian basis functions of A   symmetry.
 There are  1061 symmetry adapted basis functions of A   symmetry.
  1061 basis functions,  1715 primitive gaussians,  1206 cartesian basis functions
   110 alpha electrons      110 beta electrons
       nuclear repulsion energy      2585.8618479399 Hartrees.
 NAtoms=   54 NActive=   54 NUniq=   54 SFac= 1.00D+00 NAtFMM=   60 NAOKFM=F Big=F
 Integral buffers will be    131072 words long.
 Regular integral format.
 Two-electron integral symmetry is turned on.
 ------------------------------------------------------------------------------
 Polarizable Continuum Model (PCM)
 =================================
 Model                : PCM.
 Atomic radii         : SMD-Coulomb.
 Polarization charges : Total charges.
 Charge compensation  : None.
 Solution method      : On-the-fly selection.
 Cavity type          : VdW (van der Waals Surface) (Alpha=1.000).
 Cavity algorithm     : GePol (No added spheres)
                        Default sphere list used, NSphG=   54.
                        Lebedev-Laikov grids with approx.  5.0 points / Ang**2.
                        Smoothing algorithm: York/Karplus (Gamma=1.0000).
                        Polarization charges: spherical gaussians, with
                                              point-specific exponents (IZeta= 3).
                        Self-potential: point-specific (ISelfS= 7).
                        Self-field    : sphere-specific E.n sum rule (ISelfD= 2).
 Solvent              : Ethanol, Eps=  24.852000 Eps(inf)=   1.852593
 ------------------------------------------------------------------------------
 ------------------------------------------------------------------------------
 Atomic radii for non-electrostatic terms: SMD-CDS.
 ------------------------------------------------------------------------------
 Nuclear repulsion after PCM non-electrostatic terms =     2585.8550298034 Hartrees.
 One-electron integrals computed using PRISM.
   1 Symmetry operations used in ECPInt.
 ECPInt:  NShTT=   89676 NPrTT=  277881 LenC2=   56315 LenP2D=  119243.
 LDataN:  DoStor=T MaxTD1= 6 Len=  172
 NBasis=  1061 RedAO= T EigKep=  7.12D-06  NBF=  1061
 NBsUse=  1061 1.00D-06 EigRej= -1.00D+00 NBFU=  1061
 ExpMin= 9.52D-02 ExpMax= 6.07D+04 ExpMxC= 2.07D+03 IAcc=3 IRadAn=         5 AccDes= 0.00D+00
 Harris functional with IExCor= 1009 and IRadAn=       5 diagonalized for initial guess.
 HarFok:  IExCor= 1009 AccDes= 0.00D+00 IRadAn=         5 IDoV= 1 UseB2=F ITyADJ=14
 ICtDFT=  3500011 ScaDFX=  1.000000  1.000000  1.000000  1.000000
 FoFCou: FMM=F IPFlag=           0 FMFlag=      100000 FMFlg1=           0
         NFxFlg=           0 DoJE=T BraDBF=F KetDBF=T FulRan=T
         wScrn=  0.000000 ICntrl=       500 IOpCl=  0 I1Cent=   200000004 NGrid=           0
         NMat0=    1 NMatS0=      1 NMatT0=    0 NMatD0=    1 NMtDS0=    0 NMtDT0=    0
 Petite list used in FoFCou.
 Requested convergence on RMS density matrix=1.00D-08 within 128 cycles.
 Requested convergence on MAX density matrix=1.00D-06.
 Requested convergence on             energy=1.00D-06.
 No special actions if energy rises.
 Inv3:  Mode=1 IEnd=    53425200.
 Iteration    1 A*A^-1 deviation from unit magnitude is 3.55D-15 for    321.
 Iteration    1 A*A^-1 deviation from orthogonality  is 2.15D-15 for   1575   1161.
 Iteration    1 A^-1*A deviation from unit magnitude is 3.33D-15 for    321.
 Iteration    1 A^-1*A deviation from orthogonality  is 4.20D-15 for    636    388.
 Error on total polarization charges =  0.06907
 SCF Done:  E(RPBE1PBE) =  -1872.31983777     A.U. after   13 cycles
            NFock= 13  Conv=0.54D-08     -V/T= 2.0040
 SMD-CDS (non-electrostatic) energy       (kcal/mol) =      -4.28
 (included in total energy above)
 DoSCS=F DFT=T ScalE2(SS,OS)=  1.000000  1.000000
 ExpMin= 9.52D-02 ExpMax= 6.07D+04 ExpMxC= 2.07D+03 IAcc=3 IRadAn=         5 AccDes= 0.00D+00
 HarFok:  IExCor=  205 AccDes= 0.00D+00 IRadAn=         5 IDoV=-2 UseB2=F ITyADJ=14
 ICtDFT= 12500011 ScaDFX=  1.000000  1.000000  1.000000  1.000000
 GSVD:  LWork=       -1665 too small for GESVD, short by        7400 words or        7400 for optimal perf.
 Range of M.O.s used for correlation:    38  1061
 NBasis=  1061 NAE=   110 NBE=   110 NFC=    37 NFV=     0
 NROrb=   1024 NOA=    73 NOB=    73 NVA=   951 NVB=   951

 **** Warning!!: The largest alpha MO coefficient is  0.41081447D+02


 **** Warning!!: The smallest alpha delta epsilon is  0.85806927D-01

 NEqPCM:  Using non-equilibrium solvation (IEInf=1, Eps=  24.8520, EpsInf=   1.8526)
 Inv3:  Mode=1 IEnd=    53425200.
 Iteration    1 A*A^-1 deviation from unit magnitude is 3.33D-15 for   3435.
 Iteration    1 A*A^-1 deviation from orthogonality  is 1.89D-15 for   1241    957.
 Iteration    1 A^-1*A deviation from unit magnitude is 3.33D-15 for   3435.
 Iteration    1 A^-1*A deviation from orthogonality  is 2.70D-15 for   1749    718.
 Orbital symmetries:
       Occupied  (A) (A) (A) (A) (A) (A) (A) (A) (A) (A) (A) (A)
                 (A) (A) (A) (A) (A) (A) (A) (A) (A) (A) (A) (A)
                 (A) (A) (A) (A) (A) (A) (A) (A) (A) (A) (A) (A)
                 (A) (A) (A) (A) (A) (A) (A) (A) (A) (A) (A) (A)
                 (A) (A) (A) (A) (A) (A) (A) (A) (A) (A) (A) (A)
                 (A) (A) (A) (A) (A) (A) (A) (A) (A) (A) (A) (A)
                 (A) (A) (A) (A) (A) (A) (A) (A) (A) (A) (A) (A)
                 (A) (A) (A) (A) (A) (A) (A) (A) (A) (A) (A) (A)
                 (A) (A) (A) (A) (A) (A) (A) (A) (A) (A) (A) (A)
                 (A) (A)
       Virtual   (A) (A) (A) (A) (A) (A) (A) (A) (A) (A) (A) (A)
                 (A) (A) (A) (A) (A) (A) (A) (A) (A) (A) (A) (A)
                 (A) (A) (A) (A) (A) (A) (A) (A) (A) (A) (A) (A)
                 (A) (A) (A) (A) (A) (A) (A) (A) (A) (A) (A) (A)
                 (A) (A) (A) (A) (A) (A) (A) (A) (A) (A) (A) (A)
                 (A) (A) (A) (A) (A) (A) (A) (A) (A) (A) (A) (A)
                 (A) (A) (A) (A) (A) (A) (A) (A) (A) (A) (A) (A)
                 (A) (A) (A) (A) (A) (A) (A) (A) (A) (A) (A) (A)
                 (A) (A) (A) (A) (A) (A) (A) (A) (A) (A) (A) (A)
                 (A) (A) (A) (A) (A) (A) (A) (A) (A) (A) (A) (A)
                 (A) (A) (A) (A) (A) (A) (A) (A) (A) (A) (A) (A)
                 (A) (A) (A) (A) (A) (A) (A) (A) (A) (A) (A) (A)
                 (A) (A) (A) (A) (A) (A) (A) (A) (A) (A) (A) (A)
                 (A) (A) (A) (A) (A) (A) (A) (A) (A) (A) (A) (A)
                 (A) (A) (A) (A) (A) (A) (A) (A) (A) (A) (A) (A)
                 (A) (A) (A) (A) (A) (A) (A) (A) (A) (A) (A) (A)
                 (A) (A) (A) (A) (A) (A) (A) (A) (A) (A) (A) (A)
                 (A) (A) (A) (A) (A) (A) (A) (A) (A) (A) (A) (A)
                 (A) (A) (A) (A) (A) (A) (A) (A) (A) (A) (A) (A)
                 (A) (A) (A) (A) (A) (A) (A) (A) (A) (A) (A) (A)
                 (A) (A) (A) (A) (A) (A) (A) (A) (A) (A) (A) (A)
                 (A) (A) (A) (A) (A) (A) (A) (A) (A) (A) (A) (A)
                 (A) (A) (A) (A) (A) (A) (A) (A) (A) (A) (A) (A)
                 (A) (A) (A) (A) (A) (A) (A) (A) (A) (A) (A) (A)
                 (A) (A) (A) (A) (A) (A) (A) (A) (A) (A) (A) (A)
                 (A) (A) (A) (A) (A) (A) (A) (A) (A) (A) (A) (A)
                 (A) (A) (A) (A) (A) (A) (A) (A) (A) (A) (A) (A)
                 (A) (A) (A) (A) (A) (A) (A) (A) (A) (A) (A) (A)
                 (A) (A) (A) (A) (A) (A) (A) (A) (A) (A) (A) (A)
                 (A) (A) (A) (A) (A) (A) (A) (A) (A) (A) (A) (A)
                 (A) (A) (A) (A) (A) (A) (A) (A) (A) (A) (A) (A)
                 (A) (A) (A) (A) (A) (A) (A) (A) (A) (A) (A) (A)
                 (A) (A) (A) (A) (A) (A) (A) (A) (A) (A) (A) (A)
                 (A) (A) (A) (A) (A) (A) (A) (A) (A) (A) (A) (A)
                 (A) (A) (A) (A) (A) (A) (A) (A) (A) (A) (A) (A)
                 (A) (A) (A) (A) (A) (A) (A) (A) (A) (A) (A) (A)
                 (A) (A) (A) (A) (A) (A) (A) (A) (A) (A) (A) (A)
                 (A) (A) (A) (A) (A) (A) (A) (A) (A) (A) (A) (A)
                 (A) (A) (A) (A) (A) (A) (A) (A) (A) (A) (A) (A)
                 (A) (A) (A) (A) (A) (A) (A) (A) (A) (A) (A) (A)
                 (A) (A) (A) (A) (A) (A) (A) (A) (A) (A) (A) (A)
                 (A) (A) (A) (A) (A) (A) (A) (A) (A) (A) (A) (A)
                 (A) (A) (A) (A) (A) (A) (A) (A) (A) (A) (A) (A)
                 (A) (A) (A) (A) (A) (A) (A) (A) (A) (A) (A) (A)
                 (A) (A) (A) (A) (A) (A) (A) (A) (A) (A) (A) (A)
                 (A) (A) (A) (A) (A) (A) (A) (A) (A) (A) (A) (A)
                 (A) (A) (A) (A) (A) (A) (A) (A) (A) (A) (A) (A)
                 (A) (A) (A) (A) (A) (A) (A) (A) (A) (A) (A) (A)
                 (A) (A) (A) (A) (A) (A) (A) (A) (A) (A) (A) (A)
                 (A) (A) (A) (A) (A) (A) (A) (A) (A) (A) (A) (A)
                 (A) (A) (A) (A) (A) (A) (A) (A) (A) (A) (A) (A)
                 (A) (A) (A) (A) (A) (A) (A) (A) (A) (A) (A) (A)
                 (A) (A) (A) (A) (A) (A) (A) (A) (A) (A) (A) (A)
                 (A) (A) (A) (A) (A) (A) (A) (A) (A) (A) (A) (A)
                 (A) (A) (A) (A) (A) (A) (A) (A) (A) (A) (A) (A)
                 (A) (A) (A) (A) (A) (A) (A) (A) (A) (A) (A) (A)
                 (A) (A) (A) (A) (A) (A) (A) (A) (A) (A) (A) (A)
                 (A) (A) (A) (A) (A) (A) (A) (A) (A) (A) (A) (A)
                 (A) (A) (A) (A) (A) (A) (A) (A) (A) (A) (A) (A)
                 (A) (A) (A) (A) (A) (A) (A) (A) (A) (A) (A) (A)
                 (A) (A) (A) (A) (A) (A) (A) (A) (A) (A) (A) (A)
                 (A) (A) (A) (A) (A) (A) (A) (A) (A) (A) (A) (A)
                 (A) (A) (A) (A) (A) (A) (A) (A) (A) (A) (A) (A)
                 (A) (A) (A) (A) (A) (A) (A) (A) (A) (A) (A) (A)
                 (A) (A) (A) (A) (A) (A) (A) (A) (A) (A) (A) (A)
                 (A) (A) (A) (A) (A) (A) (A) (A) (A) (A) (A) (A)
                 (A) (A) (A) (A) (A) (A) (A) (A) (A) (A) (A) (A)
                 (A) (A) (A) (A) (A) (A) (A) (A) (A) (A) (A) (A)
                 (A) (A) (A) (A) (A) (A) (A) (A) (A) (A) (A) (A)
                 (A) (A) (A) (A) (A) (A) (A) (A) (A) (A) (A) (A)
                 (A) (A) (A) (A) (A) (A) (A) (A) (A) (A) (A) (A)
                 (A) (A) (A) (A) (A) (A) (A) (A) (A) (A) (A) (A)
                 (A) (A) (A) (A) (A) (A) (A) (A) (A) (A) (A) (A)
                 (A) (A) (A) (A) (A) (A) (A) (A) (A) (A) (A) (A)
                 (A) (A) (A) (A) (A) (A) (A) (A) (A) (A) (A) (A)
                 (A) (A) (A) (A) (A) (A) (A) (A) (A) (A) (A) (A)
                 (A) (A) (A) (A) (A) (A) (A) (A) (A) (A) (A) (A)
                 (A) (A) (A) (A) (A) (A) (A) (A) (A) (A) (A) (A)
                 (A) (A) (A) (A) (A) (A) (A) (A) (A) (A) (A) (A)
                 (A) (A) (A)
   600 initial guesses have been made.
 Convergence on wavefunction:    0.001000000000000
 Iteration     1 Dimension   600 NMult     0 NNew    600
 CISAX will form   144 AO SS matrices at one time.
 New state      3 was old state      4
 New state      4 was old state      5
 New state      5 was old state      6
 New state      6 was old state      7
 New state      7 was old state     10
 New state      8 was old state      3
 New state      9 was old state     12
 New state     10 was old state      8
 New state     11 was old state      9
 New state     12 was old state     11
 New state     13 was old state     14
 New state     14 was old state     13
 New state     15 was old state     16
 New state     16 was old state     17
 New state     17 was old state     20
 New state     18 was old state     24
 New state     19 was old state     21
 New state     20 was old state     22
 New state     21 was old state     28
 New state     22 was old state     18
 New state     23 was old state     19
 New state     24 was old state     43
 New state     25 was old state     48
 New state     26 was old state     25
 New state     27 was old state     32
 New state     28 was old state     26
 New state     29 was old state     33
 New state     30 was old state     34
 New state     31 was old state     44
 New state     32 was old state     23
 New state     33 was old state     37
 New state     34 was old state     35
 New state     35 was old state     50
 New state     36 was old state     59
 New state     37 was old state     42
 New state     38 was old state     54
 New state     39 was old state     27
 New state     40 was old state     30
 New state     41 was old state     45
 New state     42 was old state     29
 New state     43 was old state     56
 New state     44 was old state     46
 New state     45 was old state     31
 New state     46 was old state     53
 New state     47 was old state     58
 New state     48 was old state     57
 New state     49 was old state     69
 New state     50 was old state     60
 New state     51 was old state     36
 New state     52 was old state     47
 New state     53 was old state     63
 New state     54 was old state     61
 New state     55 was old state     41
 New state     56 was old state     66
 New state     57 was old state     65
 New state     58 was old state     49
 New state     59 was old state     51
 New state     60 was old state     64
 New state     61 was old state     52
 New state     62 was old state     55
 New state     63 was old state     39
 New state     64 was old state     71
 New state     65 was old state     73
 New state     66 was old state     74
 New state     67 was old state     77
 New state     68 was old state     70
 New state     69 was old state     62
 New state     70 was old state     72
 New state     71 was old state     76
 New state     72 was old state     68
 New state     73 was old state     75
 New state     74 was old state     67
 New state     75 was old state     85
 New state     76 was old state     91
 New state     77 was old state    131
 New state     78 was old state     83
 New state     79 was old state     87
 New state     80 was old state     79
 New state     81 was old state     84
 New state     82 was old state     81
 New state     83 was old state    140
 New state     84 was old state     89
 New state     85 was old state    145
 New state     86 was old state     78
 New state     87 was old state     93
 New state     88 was old state     92
 New state     89 was old state     86
 New state     90 was old state     96
 New state     91 was old state     95
 New state     92 was old state    102
 New state     93 was old state     80
 New state     94 was old state    104
 New state     95 was old state     90
 New state     96 was old state    111
 New state     97 was old state     82
 New state     98 was old state     88
 New state     99 was old state    105
 New state    100 was old state     99
 New state    101 was old state     97
 New state    102 was old state    163
 New state    103 was old state    173
 New state    104 was old state    121
 New state    105 was old state     94
 New state    106 was old state    119
 New state    107 was old state    112
 New state    108 was old state    136
 New state    109 was old state    108
 New state    110 was old state    113
 New state    111 was old state    109
 New state    112 was old state    135
 New state    113 was old state    110
 New state    114 was old state    106
 New state    115 was old state    127
 New state    116 was old state    107
 New state    117 was old state    115
 New state    118 was old state    124
 New state    119 was old state    137
 New state    120 was old state    116
 New state    121 was old state    147
 New state    122 was old state    128
 New state    124 was old state    125
 New state    125 was old state    132
 New state    126 was old state     98
 New state    127 was old state    100
 New state    128 was old state    103
 New state    129 was old state    169
 New state    131 was old state    129
 New state    132 was old state    148
 New state    133 was old state    151
 New state    134 was old state    139
 New state    135 was old state    156
 New state    136 was old state    144
 New state    137 was old state    153
 New state    138 was old state    117
 New state    139 was old state    245
 New state    140 was old state    120
 New state    141 was old state    247
 New state    142 was old state    171
 New state    143 was old state    141
 New state    144 was old state    155
 New state    145 was old state    149
 New state    146 was old state    118
 New state    147 was old state    186
 New state    148 was old state    122
 New state    149 was old state    152
 New state    150 was old state    114
 Iteration     2 Dimension   900 NMult   600 NNew    300
 New state      4 was old state      7
 New state      5 was old state      4
 New state      7 was old state      5
 New state      9 was old state     10
 New state     10 was old state      9
 New state     13 was old state     14
 New state     14 was old state     13
 New state     18 was old state     19
 New state     19 was old state     23
 New state     20 was old state     18
 New state     21 was old state     22
 New state     22 was old state     20
 New state     23 was old state     21
 New state     24 was old state     26
 New state     25 was old state     27
 New state     26 was old state     24
 New state     27 was old state     28
 New state     28 was old state     25
 New state     31 was old state     32
 New state     32 was old state     34
 New state     33 was old state     31
 New state     34 was old state     42
 New state     35 was old state     33
 New state     36 was old state     44
 New state     37 was old state     35
 New state     38 was old state     37
 New state     39 was old state     36
 New state     40 was old state     46
 New state     41 was old state     38
 New state     42 was old state     39
 New state     43 was old state     41
 New state     44 was old state     40
 New state     45 was old state     43
 New state     46 was old state     45
 New state     47 was old state     51
 New state     48 was old state     47
 New state     49 was old state     48
 New state     50 was old state     49
 New state     51 was old state     63
 New state     53 was old state     50
 New state     55 was old state     53
 New state     57 was old state     58
 New state     58 was old state     57
 New state     59 was old state     55
 New state     60 was old state     59
 New state     61 was old state     62
 New state     62 was old state     67
 New state     63 was old state     60
 New state     64 was old state     68
 New state     65 was old state     61
 New state     66 was old state     69
 New state     67 was old state     64
 New state     68 was old state     65
 New state     69 was old state     66
 New state     70 was old state     72
 New state     71 was old state     70
 New state     72 was old state     75
 New state     73 was old state     74
 New state     74 was old state     71
 New state     75 was old state     76
 New state     76 was old state     73
 New state     77 was old state     86
 New state     78 was old state     87
 New state     79 was old state     78
 New state     80 was old state     77
 New state     81 was old state     79
 New state     82 was old state     80
 New state     83 was old state     94
 New state     84 was old state     83
 New state     85 was old state     81
 New state     86 was old state     84
 New state     87 was old state     82
 New state     88 was old state     85
 New state     89 was old state     93
 New state     90 was old state     88
 New state     91 was old state     89
 New state     92 was old state     98
 New state     93 was old state     95
 New state     94 was old state     91
 New state     95 was old state     90
 New state     96 was old state     92
 New state     98 was old state     96
 New state     99 was old state    105
 New state    100 was old state    132
 New state    101 was old state    113
 New state    102 was old state     99
 New state    103 was old state    102
 New state    104 was old state    101
 New state    105 was old state    103
 New state    106 was old state    100
 New state    107 was old state    108
 New state    108 was old state    104
 New state    109 was old state    106
 New state    110 was old state    107
 New state    111 was old state    110
 New state    112 was old state    109
 New state    113 was old state    116
 New state    114 was old state    119
 New state    115 was old state    111
 New state    116 was old state    112
 New state    117 was old state    114
 New state    118 was old state    115
 New state    119 was old state    120
 New state    120 was old state    117
 New state    121 was old state    118
 New state    122 was old state    134
 New state    123 was old state    148
 New state    124 was old state    121
 New state    125 was old state    146
 New state    126 was old state    122
 New state    127 was old state    124
 New state    128 was old state    125
 New state    129 was old state    123
 New state    131 was old state    129
 New state    132 was old state    127
 New state    133 was old state    126
 New state    134 was old state    128
 New state    135 was old state    133
 New state    136 was old state    131
 New state    137 was old state    139
 New state    138 was old state    135
 New state    139 was old state    137
 New state    140 was old state    136
 New state    142 was old state    138
 New state    143 was old state    140
 New state    144 was old state    142
 New state    145 was old state    144
 New state    146 was old state    152
 New state    147 was old state    143
 New state    148 was old state    145
 New state    149 was old state    147
 New state    150 was old state    149
 Iteration     3 Dimension  1200 NMult   900 NNew    300
 Iteration     4 Dimension  1488 NMult  1200 NNew    288
 Iteration     5 Dimension  1602 NMult  1488 NNew    114
 ***********************************************************************
 Excited states from <AA,BB:AA,BB> singles matrix:
 ***********************************************************************
 
 Ground to excited state transition densities written to RWF  633
 Ground to excited state transition electric dipole moments (Au):
       state          X           Y           Z        Dip. S.      Osc.
         1         7.5560     -0.1740      0.0443     57.1253      2.8530
         2        -0.2828     -0.1003     -0.0030      0.0900      0.0073
         3        -0.2828     -1.1347     -0.0004      1.3675      0.1245
         4        -0.1763      0.2013      0.0021      0.0716      0.0066
         5        -0.1396      0.3450      0.0766      0.1444      0.0134
         6         0.7076      0.1630      0.0227      0.5277      0.0514
         7         0.0783      0.4335      0.1165      0.2076      0.0203
         8         0.0257     -0.0159      0.0166      0.0012      0.0001
         9         0.0965     -0.1694     -0.0042      0.0380      0.0039
        10        -0.0420     -0.0104      0.0132      0.0020      0.0002
        11         0.1383     -0.3862     -0.0483      0.1706      0.0181
        12        -0.1523      0.0147      0.0220      0.0239      0.0026
        13        -0.0062      0.0053     -0.0163      0.0003      0.0000
        14        -0.2946     -0.0918     -0.0218      0.0957      0.0115
        15         0.0675      0.1337     -0.0031      0.0224      0.0029
        16        -0.1628      0.0540      0.0261      0.0301      0.0039
        17         0.1346      0.0839      0.0274      0.0259      0.0034
        18        -0.3467     -0.2572      0.0514      0.1890      0.0254
        19         0.2408     -0.5436     -0.0662      0.3579      0.0482
        20         0.0778     -0.1082     -0.0126      0.0179      0.0024
        21        -0.5108     -0.1423     -0.0123      0.2814      0.0382
        22        -0.1938     -0.5052     -0.1033      0.3035      0.0413
        23         0.0983      0.0551      0.0176      0.0130      0.0018
        24         0.2957     -0.6674     -0.0949      0.5419      0.0751
        25         0.0079     -0.1503     -0.0660      0.0270      0.0038
        26         0.4758     -0.1889      0.0141      0.2622      0.0368
        27         1.2904      0.0910      0.0082      1.6734      0.2356
        28         0.0603     -0.0090     -0.0273      0.0045      0.0006
        29         0.3431      0.0517     -0.1031      0.1310      0.0188
        30        -0.1937     -0.2413     -0.0218      0.0962      0.0138
        31        -0.3267     -0.1098      0.0557      0.1219      0.0176
        32         0.0980     -0.0427     -0.0505      0.0140      0.0020
        33         0.0295     -0.0253     -0.0235      0.0021      0.0003
        34        -0.5359     -0.1622      0.0785      0.3197      0.0470
        35        -0.1632      0.1004      0.0281      0.0375      0.0055
        36         0.2115     -0.6855     -0.0734      0.5200      0.0768
        37        -0.0235     -0.1332     -0.0366      0.0196      0.0029
        38         0.8697     -0.2737      0.0014      0.8312      0.1239
        39         0.0229     -0.5263      0.0552      0.2805      0.0422
        40         0.0507     -0.4348     -0.0052      0.1916      0.0288
        41         0.0524      0.1975      0.1131      0.0545      0.0083
        42         0.0347      0.0496      0.0157      0.0039      0.0006
        43        -0.0180     -0.0889     -0.0180      0.0085      0.0013
        44        -0.0179      0.0461      0.0058      0.0025      0.0004
        45         0.0363      0.0051     -0.0466      0.0035      0.0005
        46         0.0146      0.0305      0.0368      0.0025      0.0004
        47         0.6810      0.6628      0.1156      0.9165      0.1449
        48         0.0639     -0.0557     -0.0593      0.0107      0.0017
        49        -1.0785     -0.6085     -0.0958      1.5426      0.2450
        50        -0.2142      0.5162      0.0363      0.3137      0.0499
        51         0.6230     -0.0058      0.0369      0.3895      0.0621
        52         0.5041     -0.2767     -0.0154      0.3309      0.0529
        53        -0.6439      0.0560     -0.0035      0.4177      0.0672
        54        -0.7563     -0.1685     -0.0702      0.6053      0.0977
        55         0.3387     -0.1852      0.0170      0.1493      0.0243
        56         0.2994     -0.0446     -0.0123      0.0918      0.0150
        57         0.1208     -0.0933      0.0365      0.0246      0.0040
        58        -0.0606     -0.1327     -0.0057      0.0213      0.0035
        59         0.1460     -0.0419     -0.0064      0.0231      0.0038
        60         0.0408      0.0012      0.0108      0.0018      0.0003
        61        -0.4400      0.5154      0.1149      0.4724      0.0778
        62         0.1918      0.0219      0.0387      0.0388      0.0064
        63        -0.4832      0.2603      0.0797      0.3076      0.0510
        64        -0.1708      0.2594     -0.0268      0.0972      0.0162
        65        -0.0116      0.0066     -0.0007      0.0002      0.0000
        66         0.1140      0.5015     -0.0259      0.2652      0.0448
        67        -0.0688     -0.0150     -0.0249      0.0056      0.0009
        68         0.0154      0.1175     -0.0614      0.0178      0.0030
        69        -0.0635      0.0088      0.0293      0.0050      0.0008
        70        -0.1199      0.0219     -0.0450      0.0169      0.0029
        71        -0.0214      0.0854      0.1118      0.0202      0.0035
        72        -0.4808     -0.3726     -0.0523      0.3728      0.0645
        73        -0.4896      0.1117     -0.0174      0.2524      0.0437
        74        -0.0172     -0.0276      0.0132      0.0012      0.0002
        75        -0.0335      0.1544      0.0555      0.0280      0.0049
        76        -0.1878     -0.0795      0.1140      0.0546      0.0096
        77         0.1604     -0.0078      0.0576      0.0291      0.0051
        78         0.0661      0.2662      0.0927      0.0838      0.0148
        79         0.0040      0.0444     -0.0326      0.0030      0.0005
        80         0.1164      0.0103     -0.0567      0.0169      0.0030
        81        -0.0375     -0.0269      0.0406      0.0038      0.0007
        82         0.0195     -0.0387      0.0565      0.0051      0.0009
        83         0.2968      0.1919     -0.0361      0.1262      0.0226
        84        -0.1540      0.2050      0.0403      0.0674      0.0121
        85        -0.0891      0.0627     -0.0064      0.0119      0.0021
        86        -0.0945      0.0809      0.0220      0.0160      0.0029
        87         0.0555     -0.0624     -0.0295      0.0078      0.0014
        88         0.2156     -0.3495     -0.0050      0.1687      0.0304
        89        -0.3625      0.3194      0.0084      0.2335      0.0422
        90         0.0327     -0.2974     -0.0410      0.0912      0.0165
        91         0.0036     -0.0289     -0.0824      0.0076      0.0014
        92        -0.1568      0.5213      0.0283      0.2972      0.0541
        93        -0.0929      0.2052     -0.0238      0.0513      0.0094
        94         0.0855     -0.0210      0.0320      0.0088      0.0016
        95         0.0655     -0.0634     -0.0393      0.0098      0.0018
        96         0.1954      0.0601     -0.0961      0.0510      0.0094
        97         0.1838     -0.0027     -0.0689      0.0385      0.0071
        98         0.5987      0.0171     -0.0804      0.3651      0.0675
        99        -0.1558      0.0924     -0.0949      0.0418      0.0078
       100         0.4080      0.1068     -0.1156      0.1912      0.0356
       101        -0.6107      1.2561      0.1271      1.9668      0.3676
       102         0.0341      0.1976     -0.0670      0.0447      0.0084
       103         0.0660     -0.0851      0.1391      0.0310      0.0058
       104        -0.0383     -0.2251     -0.0639      0.0562      0.0106
       105         0.0748      0.0216     -0.1186      0.0201      0.0038
       106         0.0052      0.0202     -0.0146      0.0006      0.0001
       107        -0.1706      0.0152     -0.0735      0.0347      0.0066
       108         0.0341     -0.0811      0.0495      0.0102      0.0019
       109         0.1382      0.0016      0.1882      0.0545      0.0103
       110         0.0531     -0.0730      0.1390      0.0275      0.0052
       111         0.0522      0.0324      0.0831      0.0107      0.0020
       112        -0.0056      0.1898      0.0896      0.0441      0.0084
       113         0.1599     -0.5612     -0.1292      0.3572      0.0685
       114         0.3035      0.4095     -0.0126      0.2599      0.0499
       115        -0.1359      0.1419      0.0069      0.0387      0.0074
       116         0.0998      0.0658     -0.0316      0.0153      0.0029
       117         0.0733      0.0121     -0.0439      0.0075      0.0014
       118        -0.0047      0.0285      0.0959      0.0100      0.0019
       119         0.1081      0.0045     -0.0612      0.0155      0.0030
       120         0.0036     -0.0653     -0.0007      0.0043      0.0008
       121        -0.1372     -0.0656      0.1113      0.0355      0.0069
       122         0.1779      0.4338      0.0829      0.2267      0.0441
       123        -0.2352      0.3442      0.1170      0.1875      0.0365
       124        -0.6043     -0.5221     -0.0240      0.6384      0.1247
       125         0.1991      0.2582      0.0249      0.1069      0.0209
       126        -0.0689      0.0317     -0.0299      0.0066      0.0013
       127         0.0844      0.0619      0.0093      0.0110      0.0022
       128        -0.0445      0.0253     -0.0404      0.0043      0.0008
       129         0.0922     -0.1515     -0.1343      0.0495      0.0098
       130        -0.0161      0.0862     -0.1352      0.0260      0.0051
       131        -0.0975      0.0723      0.0585      0.0182      0.0036
       132         0.2775     -0.1948      0.0324      0.1160      0.0230
       133        -0.1489      0.1187      0.0063      0.0363      0.0072
       134         0.0540      0.1446     -0.0515      0.0265      0.0053
       135        -0.1919     -0.1457      0.1182      0.0720      0.0143
       136         0.0194      0.0786      0.0713      0.0116      0.0023
       137        -0.1076      0.1830      0.0720      0.0503      0.0100
       138         0.0640      0.0403      0.0248      0.0063      0.0013
       139         0.0321      0.0175      0.0642      0.0055      0.0011
       140         0.1355     -0.0541     -0.0205      0.0217      0.0043
       141        -0.1604      0.1072     -0.0570      0.0405      0.0081
       142         0.0054      0.0794     -0.1118      0.0188      0.0038
       143         0.2490     -0.0058     -0.0851      0.0693      0.0139
       144         0.1662     -0.0981     -0.0057      0.0373      0.0075
       145        -0.0649      0.1336      0.0023      0.0221      0.0044
       146         0.0398      0.0777     -0.0154      0.0079      0.0016
       147        -0.0623     -0.0235      0.0221      0.0049      0.0010
       148         0.1221      0.0173     -0.0676      0.0198      0.0040
       149        -0.0797     -0.0439     -0.0021      0.0083      0.0017
       150        -0.1456      0.0231      0.0266      0.0224      0.0046
 Ground to excited state transition velocity dipole moments (Au):
       state          X           Y           Z        Dip. S.      Osc.
         1        -0.5645      0.0133     -0.0033      0.3188      2.8375
         2         0.0341      0.0114      0.0003      0.0013      0.0071
         3         0.0383      0.1553     -0.0000      0.0256      0.1250
         4         0.0248     -0.0278     -0.0002      0.0014      0.0067
         5         0.0186     -0.0482     -0.0105      0.0028      0.0133
         6        -0.1029     -0.0254     -0.0033      0.0112      0.0513
         7        -0.0111     -0.0647     -0.0176      0.0046      0.0210
         8        -0.0039      0.0025     -0.0035      0.0000      0.0001
         9        -0.0162      0.0263      0.0006      0.0010      0.0041
        10         0.0063      0.0017     -0.0030      0.0001      0.0002
        11        -0.0237      0.0633      0.0079      0.0046      0.0194
        12         0.0255     -0.0015     -0.0037      0.0007      0.0027
        13         0.0012     -0.0006      0.0029      0.0000      0.0000
        14         0.0522      0.0174      0.0041      0.0030      0.0113
        15        -0.0129     -0.0270      0.0005      0.0009      0.0031
        16         0.0321     -0.0117     -0.0054      0.0012      0.0041
        17        -0.0269     -0.0163     -0.0048      0.0010      0.0034
        18         0.0690      0.0520     -0.0103      0.0076      0.0251
        19        -0.0492      0.1099      0.0134      0.0147      0.0484
        20        -0.0159      0.0220      0.0020      0.0007      0.0024
        21         0.1035      0.0301      0.0025      0.0116      0.0380
        22         0.0391      0.1042      0.0213      0.0128      0.0418
        23        -0.0201     -0.0114     -0.0032      0.0005      0.0018
        24        -0.0600      0.1382      0.0198      0.0231      0.0741
        25        -0.0022      0.0313      0.0136      0.0012      0.0037
        26        -0.1002      0.0405     -0.0033      0.0117      0.0370
        27        -0.2715     -0.0181     -0.0016      0.0740      0.2338
        28        -0.0128      0.0018      0.0064      0.0002      0.0007
        29        -0.0742     -0.0116      0.0229      0.0062      0.0191
        30         0.0423      0.0525      0.0051      0.0046      0.0141
        31         0.0690      0.0237     -0.0122      0.0055      0.0168
        32        -0.0227      0.0094      0.0113      0.0007      0.0022
        33        -0.0068      0.0056      0.0058      0.0001      0.0003
        34         0.1191      0.0361     -0.0176      0.0158      0.0478
        35         0.0387     -0.0233     -0.0066      0.0021      0.0063
        36        -0.0482      0.1539      0.0164      0.0263      0.0791
        37         0.0061      0.0276      0.0086      0.0009      0.0026
        38        -0.1941      0.0614     -0.0005      0.0414      0.1236
        39        -0.0051      0.1189     -0.0129      0.0143      0.0423
        40        -0.0116      0.0985      0.0018      0.0098      0.0290
        41        -0.0136     -0.0453     -0.0249      0.0029      0.0083
        42        -0.0079     -0.0115     -0.0037      0.0002      0.0006
        43         0.0039      0.0204      0.0047      0.0005      0.0013
        44         0.0041     -0.0106     -0.0014      0.0001      0.0004
        45        -0.0078     -0.0005      0.0110      0.0002      0.0005
        46        -0.0035     -0.0069     -0.0090      0.0001      0.0004
        47        -0.1611     -0.1576     -0.0269      0.0515      0.1448
        48        -0.0152      0.0147      0.0131      0.0006      0.0017
        49         0.2557      0.1446      0.0232      0.0868      0.2430
        50         0.0513     -0.1229     -0.0090      0.0178      0.0498
        51        -0.1488      0.0003     -0.0093      0.0222      0.0620
        52        -0.1202      0.0664      0.0039      0.0189      0.0525
        53         0.1549     -0.0135      0.0005      0.0242      0.0669
        54         0.1823      0.0396      0.0167      0.0351      0.0965
        55        -0.0823      0.0449     -0.0038      0.0088      0.0241
        56        -0.0730      0.0108      0.0024      0.0054      0.0149
        57        -0.0296      0.0231     -0.0100      0.0015      0.0041
        58         0.0149      0.0320      0.0011      0.0012      0.0034
        59        -0.0359      0.0105      0.0015      0.0014      0.0038
        60        -0.0102      0.0001     -0.0027      0.0001      0.0003
        61         0.1097     -0.1271     -0.0286      0.0290      0.0783
        62        -0.0492     -0.0045     -0.0093      0.0025      0.0068
        63         0.1203     -0.0645     -0.0197      0.0190      0.0510
        64         0.0417     -0.0646      0.0066      0.0059      0.0159
        65         0.0029     -0.0017      0.0002      0.0000      0.0000
        66        -0.0286     -0.1279      0.0065      0.0172      0.0453
        67         0.0173      0.0040      0.0063      0.0004      0.0009
        68        -0.0027     -0.0299      0.0153      0.0011      0.0030
        69         0.0162     -0.0021     -0.0073      0.0003      0.0008
        70         0.0306     -0.0052      0.0116      0.0011      0.0028
        71         0.0052     -0.0223     -0.0282      0.0013      0.0034
        72         0.1246      0.0959      0.0136      0.0249      0.0640
        73         0.1271     -0.0296      0.0042      0.0171      0.0438
        74         0.0037      0.0071     -0.0030      0.0001      0.0002
        75         0.0091     -0.0403     -0.0142      0.0019      0.0049
        76         0.0478      0.0220     -0.0281      0.0036      0.0090
        77        -0.0436      0.0028     -0.0145      0.0021      0.0053
        78        -0.0184     -0.0709     -0.0242      0.0060      0.0150
        79        -0.0009     -0.0113      0.0075      0.0002      0.0005
        80        -0.0306     -0.0032      0.0152      0.0012      0.0029
        81         0.0089      0.0065     -0.0105      0.0002      0.0006
        82        -0.0073      0.0102     -0.0144      0.0004      0.0009
        83        -0.0794     -0.0512      0.0101      0.0090      0.0223
        84         0.0397     -0.0547     -0.0107      0.0047      0.0116
        85         0.0234     -0.0170      0.0022      0.0008      0.0021
        86         0.0258     -0.0218     -0.0059      0.0012      0.0029
        87        -0.0156      0.0168      0.0083      0.0006      0.0015
        88        -0.0578      0.0938      0.0010      0.0122      0.0299
        89         0.0984     -0.0861     -0.0019      0.0171      0.0420
        90        -0.0106      0.0802      0.0131      0.0067      0.0165
        91        -0.0006      0.0096      0.0218      0.0006      0.0014
        92         0.0424     -0.1428     -0.0072      0.0222      0.0543
        93         0.0249     -0.0559      0.0067      0.0038      0.0092
        94        -0.0233      0.0063     -0.0076      0.0006      0.0016
        95        -0.0175      0.0173      0.0095      0.0007      0.0017
        96        -0.0544     -0.0166      0.0277      0.0040      0.0097
        97        -0.0505     -0.0004      0.0182      0.0029      0.0070
        98        -0.1647     -0.0048      0.0216      0.0276      0.0664
        99         0.0463     -0.0257      0.0261      0.0035      0.0084
       100        -0.1134     -0.0302      0.0328      0.0149      0.0354
       101         0.1722     -0.3494     -0.0347      0.1530      0.3637
       102        -0.0101     -0.0553      0.0185      0.0035      0.0083
       103        -0.0186      0.0239     -0.0385      0.0024      0.0057
       104         0.0107      0.0641      0.0173      0.0045      0.0107
       105        -0.0210     -0.0059      0.0334      0.0016      0.0038
       106        -0.0013     -0.0063      0.0041      0.0001      0.0001
       107         0.0496     -0.0031      0.0172      0.0028      0.0065
       108        -0.0094      0.0228     -0.0119      0.0008      0.0018
       109        -0.0381     -0.0002     -0.0497      0.0039      0.0092
       110        -0.0146      0.0207     -0.0372      0.0020      0.0047
       111        -0.0144     -0.0092     -0.0194      0.0007      0.0016
       112         0.0010     -0.0549     -0.0268      0.0037      0.0087
       113        -0.0443      0.1602      0.0360      0.0289      0.0671
       114        -0.0871     -0.1172      0.0034      0.0213      0.0494
       115         0.0389     -0.0412     -0.0011      0.0032      0.0074
       116        -0.0288     -0.0182      0.0093      0.0013      0.0029
       117        -0.0213     -0.0039      0.0133      0.0006      0.0015
       118         0.0015     -0.0078     -0.0287      0.0009      0.0020
       119        -0.0311     -0.0017      0.0157      0.0012      0.0028
       120        -0.0009      0.0189      0.0005      0.0004      0.0008
       121         0.0393      0.0196     -0.0327      0.0030      0.0069
       122        -0.0528     -0.1277     -0.0233      0.0197      0.0449
       123         0.0675     -0.0996     -0.0338      0.0156      0.0357
       124         0.1773      0.1507      0.0060      0.0542      0.1232
       125        -0.0588     -0.0751     -0.0072      0.0092      0.0208
       126         0.0199     -0.0093      0.0072      0.0005      0.0012
       127        -0.0247     -0.0186     -0.0028      0.0010      0.0022
       128         0.0130     -0.0072      0.0114      0.0004      0.0008
       129        -0.0285      0.0445      0.0378      0.0042      0.0095
       130         0.0047     -0.0243      0.0340      0.0018      0.0040
       131         0.0283     -0.0207     -0.0166      0.0015      0.0034
       132        -0.0826      0.0578     -0.0089      0.0102      0.0229
       133         0.0437     -0.0355     -0.0023      0.0032      0.0071
       134        -0.0180     -0.0430      0.0135      0.0024      0.0053
       135         0.0601      0.0433     -0.0320      0.0065      0.0146
       136        -0.0056     -0.0237     -0.0194      0.0010      0.0022
       137         0.0300     -0.0536     -0.0181      0.0041      0.0091
       138        -0.0208     -0.0114     -0.0050      0.0006      0.0013
       139        -0.0101     -0.0054     -0.0169      0.0004      0.0009
       140        -0.0401      0.0154      0.0064      0.0019      0.0042
       141         0.0472     -0.0306      0.0155      0.0034      0.0076
       142        -0.0034     -0.0230      0.0309      0.0015      0.0033
       143        -0.0761      0.0020      0.0239      0.0064      0.0141
       144        -0.0496      0.0292      0.0018      0.0033      0.0073
       145         0.0202     -0.0400     -0.0010      0.0020      0.0044
       146        -0.0124     -0.0232      0.0046      0.0007      0.0016
       147         0.0179      0.0079     -0.0063      0.0004      0.0009
       148        -0.0368     -0.0039      0.0176      0.0017      0.0037
       149         0.0247      0.0133     -0.0011      0.0008      0.0017
       150         0.0448     -0.0073     -0.0085      0.0021      0.0047
 Ground to excited state transition magnetic dipole moments (Au):
       state          X           Y           Z
         1         0.0428      0.0872     -1.6353
         2        -0.0163      0.0177      0.0113
         3        -0.0184      0.0911     -0.5517
         4         0.0347     -0.0916      0.0366
         5         0.0673      0.0534     -0.2007
         6        -0.0068      0.0061      0.8517
         7        -0.0413      0.3220     -1.7248
         8         0.0210     -0.2038      0.2955
         9         0.0022     -0.0828      0.2098
        10         0.1506      0.0703     -0.0228
        11         0.0491     -0.2095     -0.2654
        12         0.0347      0.1239     -1.5271
        13        -0.0381     -0.0462      0.3317
        14         0.0328     -0.0255     -0.3286
        15         0.0045     -0.0738      0.7577
        16        -0.0439      0.1398     -0.3049
        17        -0.0131      0.0274      0.5536
        18         0.0991      0.1427     -1.2977
        19         0.0141     -0.2650     -0.5739
        20         0.0022      0.2816      0.3339
        21         0.0206      0.0662     -0.9490
        22         0.0478     -0.2839      1.1272
        23         0.2341      0.2586      0.0817
        24        -0.0656     -0.3231      1.6135
        25        -0.0017     -0.1679      0.7205
        26        -0.0074      0.3242     -0.3428
        27         0.0430      0.0641     -2.0366
        28         0.1911      0.2569     -0.0396
        29        -0.0353      0.1216     -0.1634
        30        -0.0019      0.1721     -1.0540
        31        -0.0247      0.3828     -1.3867
        32        -0.0109     -0.0135      0.5023
        33         0.0488     -0.0801      0.1799
        34        -0.0455      0.4261     -2.7842
        35        -0.0810      0.4000     -0.6706
        36         0.0406     -0.1140     -1.6601
        37        -0.0790      0.3128     -0.3678
        38        -0.0460     -0.0100     -1.4158
        39         0.0069      0.0215     -1.2363
        40         0.2144     -0.0822     -0.8973
        41         0.1605     -0.1158      0.2146
        42         0.0280      0.0460     -0.3878
        43        -0.3481     -0.0460      0.2077
        44         0.0135      0.0212     -0.1335
        45         0.0353     -0.1041     -0.4365
        46         0.2258      0.0466     -0.4759
        47        -0.1081      0.3948     -2.1318
        48         0.1018     -0.2078      0.2648
        49        -0.0022     -0.4142      1.6433
        50        -0.1099      0.3220     -2.3689
        51        -0.0152      0.0270      0.1776
        52         0.1159     -0.1591      1.1803
        53         0.0889      0.0317      0.2335
        54        -0.0585     -0.0244      1.4856
        55         0.0506     -0.1523      0.1234
        56        -0.0347      0.0390     -0.1075
        57         0.2598      0.2057     -0.0815
        58         0.1016     -0.1748      0.3110
        59        -0.0404     -0.0210      0.0080
        60         0.2838      0.2519     -0.0743
        61        -0.0058      0.4080     -0.8165
        62        -0.0538     -0.1196     -1.3431
        63        -0.0200      0.0554      0.2597
        64         0.0679      0.2188     -0.8175
        65         0.0030     -0.0017      0.0153
        66        -0.0190     -0.1748      2.0052
        67         0.3540      0.1297     -0.2065
        68         0.0859     -0.2485     -0.1655
        69        -0.0827      0.1367      0.0235
        70         0.0573     -0.0006      0.3126
        71        -0.2102      0.1218     -0.0703
        72        -0.0123     -0.2676      1.6487
        73        -0.0091      0.0808     -0.7835
        74         0.0207     -0.4227     -0.2227
        75         0.0226      0.0682     -0.4461
        76         0.1526     -0.1978     -0.6834
        77         0.1544     -0.3238      1.5783
        78        -0.0305      0.2693     -1.2601
        79        -0.1376      0.0227     -0.1187
        80        -0.1132      0.1589      0.0902
        81        -0.0376      0.0933      0.6846
        82        -0.0556      0.0360     -0.2833
        83         0.1502     -0.3147      0.8868
        84        -0.0738      0.2135      0.5526
        85         0.3373     -0.1661      0.1861
        86         0.3270     -0.0042      0.2540
        87        -0.0956     -0.0501      0.1463
        88         0.0789     -0.1664     -1.0398
        89        -0.0016      0.0431      0.8232
        90         0.0608      0.0979     -0.4562
        91        -0.1075     -0.2969      0.3838
        92        -0.2310      0.2003      1.0143
        93        -0.0073     -0.1330      0.3851
        94        -0.0754     -0.1668     -0.0188
        95        -0.0115     -0.0524      0.0692
        96        -0.2374     -0.4562      1.7436
        97        -0.2392     -0.2019      1.3812
        98        -0.5378     -0.5079      3.6946
        99        -0.0101      0.1742     -0.3133
       100         0.7910     -0.1050      2.9616
       101        -0.1192      0.3746      1.8736
       102         0.1450     -0.0469      0.4240
       103         0.1418     -0.6721      0.0124
       104         0.0564     -0.1589     -0.4638
       105         0.0193     -0.6140     -0.1085
       106        -0.0621     -0.0682      0.1984
       107         0.1236     -0.0639      0.0850
       108         0.0059     -0.2120     -0.2254
       109        -0.1052      0.6433      0.1587
       110        -0.0710     -0.7135     -0.3564
       111         0.0919     -0.3984      0.2919
       112         0.0161      0.0504     -0.9140
       113        -0.1786     -0.7536      2.8267
       114        -0.1739     -0.0057      0.9777
       115        -0.0599      0.0839     -1.8283
       116        -0.0458      0.4416      0.4791
       117         0.0862      0.0772      0.4701
       118         0.1164     -0.0305      0.1210
       119        -0.2086      0.0136      0.1780
       120         0.0944      0.1563     -0.0452
       121        -0.0231      0.2722      0.3730
       122        -0.0478      0.5436     -1.7016
       123         0.0486      0.3981     -2.8745
       124         0.1555     -0.0161     -1.5323
       125         0.3075      0.5061      0.2761
       126        -0.1138     -0.2568     -0.4518
       127        -0.0723      0.0858      0.1062
       128         0.0607     -0.0340     -0.6494
       129         0.1634     -0.5881      0.8120
       130        -0.1172     -0.4785     -0.5603
       131        -0.0676     -0.3161     -0.0859
       132         0.1572     -0.1480     -0.5773
       133        -0.0600      0.1419     -0.6304
       134        -0.0327      0.2632     -0.0192
       135         0.0868     -0.3309     -0.9047
       136         0.0626     -0.1551      0.7034
       137        -0.1163     -0.1152      0.1055
       138         0.0383      0.0355     -0.1216
       139        -0.1089     -0.1317      0.1831
       140         0.0512      0.0395     -0.1809
       141        -0.0426      0.2266      0.3391
       142        -0.1289      0.0315      0.0730
       143        -0.2495     -0.0144      0.1118
       144         0.0339     -0.2602     -0.1340
       145         0.0322     -0.2913     -0.2674
       146         0.0093     -0.0855      0.1461
       147         0.0016      0.0552     -0.3718
       148         0.1326     -0.1119      0.8028
       149         0.0789      0.0548     -0.6818
       150        -0.0667     -0.0423     -0.0816
 Ground to excited state transition velocity quadrupole moments (Au):
       state          XX          YY          ZZ          XY          XZ          YZ
         1        -0.2145      0.0491     -0.0015     -0.2020      0.0342     -0.0449
         2         2.9886      0.2247      0.0116     -0.1363      0.0066      0.0093
         3         8.0575      0.2768      0.0366     -0.6422      0.0188      0.0195
         4        -4.7410     -0.1906     -0.0174     -0.1634      0.0001     -0.0021
         5         0.1918      0.0249      0.0004     -0.5295     -0.1224      0.0124
         6         2.9869     -0.0487     -0.0031      0.0928      0.0317      0.0030
         7        -0.4011      0.0398      0.0047     -1.2156     -0.2504      0.0040
         8        -0.4110     -0.0372      0.0037      0.2904     -0.0525      0.0032
         9         0.3910      0.0040      0.0029      0.4707      0.0256      0.0030
        10        -0.3166     -0.0046     -0.0033     -0.0077      0.0637     -0.0302
        11        -0.6482      0.1428      0.0022     -0.8139      0.0936      0.0066
        12        -0.8050     -0.0422     -0.0245     -0.8715     -0.0495     -0.0042
        13         1.8752      0.2782      0.0279     -0.0210      0.0198      0.0093
        14        -1.1716      0.0085     -0.0091     -0.7315      0.0140     -0.0096
        15        -0.4786     -0.0854      0.0118      0.4713      0.0424      0.0030
        16         1.4796     -0.1154     -0.0086     -0.1559     -0.0751     -0.0247
        17         0.2711     -0.1008      0.0102      0.6981     -0.0462      0.0485
        18         1.3536      0.0037     -0.0119     -1.3827     -0.0737      0.0218
        19        -2.8954      0.0050     -0.0048     -0.4936      0.1864     -0.0184
        20        -0.2755     -0.0198      0.0044      0.2206      0.0576      0.0233
        21        -3.1501      0.2296      0.0049     -0.4494     -0.1025     -0.0092
        22        -0.4965      0.0636      0.0034      1.1964      0.3136      0.0184
        23         0.5101      0.0114     -0.0005      0.0048      0.0444     -0.0181
        24         5.8840      0.0837     -0.0175      0.9312      0.2407     -0.0220
        25         1.1794      0.0618     -0.0089      0.9492      0.1282     -0.0561
        26         1.7325      0.1993     -0.0094     -0.5972     -0.0295     -0.0166
        27         0.6648      0.5368      0.0004     -2.6736     -0.0580      0.0028
        28         0.2133      0.0450     -0.0012     -0.0919     -0.0517     -0.0005
        29        -0.3973      0.0194      0.0141     -0.1895     -0.0858     -0.0549
        30         1.9065     -0.0996      0.0027     -0.8720     -0.1418     -0.0219
        31         3.4462     -0.1407     -0.0339     -1.0130     -0.2989     -0.0806
        32        -0.4450      0.0745      0.0102      0.2939      0.0043     -0.0044
        33        -0.4818     -0.0043      0.0060      0.1488      0.0112      0.0322
        34         3.7616      0.0820     -0.0312     -1.7877     -0.3489     -0.0514
        35         1.7932     -0.2086     -0.0265     -0.3337     -0.2707     -0.0761
        36        -2.0793      0.7665     -0.0123     -1.4555      0.0750      0.0124
        37         1.5453     -0.0824     -0.0558     -0.3764     -0.2769     -0.1051
        38        -2.3142      0.0846     -0.0100     -1.7643     -0.0055      0.0038
        39         4.4698      0.0569     -0.0227     -1.4421      0.0738      0.0088
        40         2.5887      0.0733     -0.0165     -1.1869      0.0714      0.0784
        41        -1.4326      0.0384     -0.0216      0.3581      0.1400      0.0925
        42        -0.7418     -0.0291      0.0046     -0.3501     -0.0545      0.0090
        43        -0.0730      0.0615     -0.0479      0.0850      0.1131     -0.0855
        44        -0.3861      0.0182      0.0032     -0.1021     -0.0294      0.0039
        45        -0.3804      0.0267     -0.0045     -0.1473     -0.0944     -0.0147
        46        -1.4925     -0.1655     -0.0108     -0.3229     -0.0380      0.0327
        47        -3.9727     -0.2951     -0.0025     -2.2728     -0.3324     -0.0075
        48        -0.5214     -0.0996      0.0548      0.2293      0.2197      0.0659
        49        -1.6719      0.2705     -0.0147      2.2450      0.3325      0.0137
        50        -9.3003      0.3490      0.0336     -1.3168     -0.4092     -0.0377
        51         2.4774     -0.0997     -0.0033     -0.4643     -0.0010      0.0001
        52         7.0787     -0.3085     -0.0242      0.3219      0.2481      0.0122
        53        -1.6950      0.0305      0.0103      0.8448     -0.0915      0.0274
        54         1.3088     -0.1531     -0.0125      2.1530      0.0844     -0.1033
        55         1.5055     -0.1235     -0.0020     -0.4531      0.1747      0.0424
        56         1.4493     -0.0807     -0.0225     -0.5320     -0.0409     -0.0210
        57        -0.1504     -0.0234      0.0673     -0.2091     -0.0838      0.1264
        58        -0.3455      0.0818      0.0166      0.4613      0.2213     -0.0129
        59         0.1381     -0.0202     -0.0080     -0.2389     -0.0110      0.0255
        60         0.2487      0.0367      0.0442     -0.2350     -0.1548      0.0413
        61         2.6183     -0.5801     -0.0107     -0.3262     -0.3888     -0.0781
        62        -1.5836      0.3960     -0.0272     -1.5992      0.0261     -0.0278
        63         2.6532     -0.2170     -0.0234      0.3918     -0.0909     -0.0761
        64         0.3605     -0.0302      0.0062     -0.4280     -0.1629      0.0245
        65         0.0523     -0.0035      0.0006      0.0253     -0.0002      0.0015
        66        -3.2450     -0.2051      0.0279      2.2959      0.1653      0.0381
        67         0.4883     -0.0456      0.0083     -0.1783     -0.1375      0.0991
        68        -0.2800     -0.0217      0.0399     -0.1233      0.3206      0.0252
        69         0.1927     -0.0646      0.0335      0.0840     -0.0411     -0.0355
        70         0.2778      0.0494      0.0084      0.3493      0.0677     -0.0394
        71        -0.8791      0.0950     -0.0104     -0.0715     -0.1102     -0.1374
        72         1.0287      0.1191     -0.0203      1.9422      0.2801     -0.0027
        73        -4.8611      0.2072      0.0268     -0.3066     -0.1787      0.0048
        74        -0.0260      0.0577     -0.0082     -0.0246      0.3201      0.0136
        75        -0.6991     -0.1338     -0.0404     -0.5259     -0.0294      0.0349
        76        -1.2601      0.1418      0.0266     -0.1277      0.1775      0.0785
        77         1.4318     -0.3444      0.0136      1.0015      0.3531      0.0824
        78         0.8414     -0.4528      0.0043     -1.1470     -0.2480     -0.0084
        79        -0.2996     -0.0932      0.0286     -0.0632      0.0250     -0.0028
        80        -0.5915     -0.0312     -0.0669     -0.1947      0.1351     -0.1203
        81        -0.0263     -0.0878     -0.0335      0.3988     -0.2220     -0.0544
        82         1.2659      0.2416     -0.0000     -0.0702     -0.0322      0.0098
        83        -1.0803     -0.2247      0.0241      0.5678      0.2029     -0.0075
        84         0.8310     -0.0771     -0.0026      0.8196     -0.0757     -0.0840
        85         0.3982      0.0262      0.0081      0.2313      0.0864      0.1395
        86        -0.5053      0.0808      0.0100      0.3483      0.2335     -0.0944
        87        -0.3748      0.0370      0.0177      0.2619      0.0475      0.0346
        88        -0.8427      0.1463      0.0001     -1.3574      0.0090      0.0253
        89         1.5319     -0.0277      0.0483      1.2388     -0.0487      0.0475
        90         0.6475     -0.0046     -0.0117     -0.2858     -0.0477     -0.0032
        91        -1.1716      0.1320      0.0601      0.4985      0.1971      0.0167
        92        -2.0765      0.0708      0.0100      1.4112     -0.2415     -0.0659
        93        -0.2730     -0.0586      0.0255      0.4189      0.1093      0.0132
        94         0.0322      0.2159      0.0109     -0.1425      0.1556      0.0685
        95         0.1110     -0.1539     -0.0138     -0.0094     -0.0918      0.0540
        96        -2.5829      0.1430     -0.0035      1.8469      0.4571      0.0246
        97        -2.3831     -0.1936     -0.0486      1.2690      0.0688     -0.1685
        98        -5.3569     -0.1350      0.0478      3.3592      0.5078     -0.0819
        99         1.1829     -0.1174      0.0033     -0.2380     -0.2339     -0.0865
       100        -4.7733     -0.2383      0.0102      2.9308      0.1199      0.2713
       101         4.2920     -0.9498      0.0011      2.0709     -0.3934     -0.0465
       102        -0.2610     -0.2503      0.0124      0.7363      0.0408      0.0688
       103        -0.5696     -0.0407      0.0249      0.0937      0.6839      0.0166
       104        -0.4456      0.2645      0.0130     -0.8114      0.0773      0.0929
       105        -0.3530     -0.0322     -0.0160      0.0475      0.6641      0.0285
       106        -1.2856     -0.1687     -0.0739      0.1356      0.0965     -0.1532
       107         0.7814     -0.2249      0.0613      0.1979      0.0024      0.1217
       108         0.3073      0.0926      0.0026     -0.3529      0.2179      0.0424
       109        -1.1232     -0.0122     -0.0968      0.0384     -0.6038     -0.1425
       110         1.1693      0.0583      0.0301     -0.4660      0.6703      0.0765
       111         0.4840      0.0468      0.0202      0.2151      0.2748      0.0908
       112         0.1535     -0.1949     -0.0193     -0.8494     -0.1036     -0.0212
       113        -0.5503      0.1351     -0.0113      2.4823      0.6578     -0.0101
       114         1.5663     -0.0812     -0.0114      0.6997      0.0853     -0.0349
       115        -1.3838     -0.1985     -0.0353     -1.5238     -0.0233     -0.0181
       116         0.0525      0.1624      0.0086      0.3042     -0.3464     -0.0668
       117         1.0009      0.4521      0.0445      0.0852     -0.1226     -0.0374
       118         0.1398     -0.2011     -0.0215      0.1155      0.0381      0.0358
       119        -0.2473      0.2458      0.0154      0.2164     -0.0115     -0.0281
       120         0.1950      0.0770      0.0214     -0.1629     -0.1973      0.0111
       121         0.7787      0.0319     -0.0549      0.2901     -0.2709     -0.0646
       122        -0.0724     -0.2446     -0.0084     -1.7509     -0.5207     -0.0342
       123        -2.9595     -0.2660     -0.0146     -2.3886     -0.3647     -0.0028
       124        -5.1469      0.3676     -0.0156     -0.5138      0.0462      0.0592
       125         1.6066     -0.0652      0.0109      0.0115     -0.1791      0.0020
       126         0.1061     -0.0000     -0.0278     -0.5710      0.1144      0.0253
       127         0.0141      0.0745     -0.0163      0.1312     -0.0166     -0.0251
       128        -0.6192      0.1296     -0.0049     -0.7861     -0.0406     -0.0214
       129        -0.7357     -0.0304      0.0623      0.7113      0.4698      0.1074
       130         0.2925      0.0363     -0.0282     -0.4462      0.4414     -0.1189
       131         0.3969     -0.2397     -0.0031     -0.1660      0.1525     -0.0363
       132        -0.5087      0.1836      0.0210     -0.7686      0.1045      0.0478
       133        -0.5782     -0.1528     -0.0070     -0.4755     -0.1526     -0.0162
       134         0.4883     -0.0034      0.0144     -0.0115     -0.2522     -0.0487
       135        -1.6931      0.0452     -0.0234     -0.7179      0.3187      0.0863
       136        -0.5096      0.1980      0.0140      0.7832      0.1727     -0.0118
       137         1.1734     -0.2669      0.0008      0.2897     -0.0402     -0.0852
       138         0.4730     -0.0566     -0.0004     -0.1048     -0.0264      0.0349
       139        -0.4415     -0.0528      0.0111      0.1328      0.3046     -0.0460
       140        -0.0052     -0.0495      0.0136     -0.4687      0.1035     -0.0089
       141         1.7798     -0.2292     -0.0122      0.2023     -0.2213     -0.0218
       142        -0.4681     -0.2024     -0.0126      0.0878     -0.0605     -0.0777
       143        -1.5569      0.0894     -0.0055      0.0637      0.0463     -0.0548
       144        -0.8832      0.0923     -0.0060     -0.0415      0.1449      0.0509
       145         0.4968     -0.1627     -0.0159     -0.2785     -0.0113     -0.0259
       146        -0.0950     -0.0870      0.0063      0.2509      0.0226     -0.0424
       147         0.1014     -0.0922     -0.0351     -0.6496     -0.0971      0.0336
       148        -0.7155     -0.1645      0.0052      1.0250      0.1949      0.0765
       149         0.3340      0.0652     -0.0125     -0.8067     -0.1794      0.0488
       150        -0.0144     -0.3251     -0.0113      0.0414      0.0210     -0.0384
 <0|del|b> * <b|rxdel|0> + <0|del|b> * <b|delr+rdel|0>
 Rotatory Strengths (R) in cgs (10**-40 erg-esu-cm/Gauss)
       state          XX          YY          ZZ    R(velocity)    E-M Angle
         1        32.0911     28.0264   -226.2445    -55.3757       91.09
         2         0.2538     -0.5605     -1.7446     -0.6838      111.58
         3        29.0781      0.1101     40.4070     23.1984       81.36
         4         6.5564      1.9768      8.8216      5.7849       29.25
         5        -2.0039     -5.0280     11.0413      1.3365       86.07
         6        -6.0412     -5.1782      0.1167     -3.7009       91.46
         7        35.1420     22.5318     -9.9460     15.9093       85.23
         8        -5.6584     -0.2612     -1.6722     -2.5306      141.10
         9        -5.6895     -0.5275     -3.4340     -3.2170      107.50
        10         0.2345      1.8505      3.1553      1.7468       19.05
        11       -61.4712      6.6924    -18.5018    -24.4269      135.28
        12        18.2274      6.7932      1.8729      8.9645       80.81
        13         1.8764      1.9699     -0.0763      1.2567       28.15
        14        -9.9644      5.6608      3.9747     -0.1097       90.00
        15         6.9502      0.0956      1.5230      2.8563       84.13
        16        -0.0136     -2.5441     -2.5090     -1.6889       96.81
        17       -13.0720     -0.4549      3.5315     -3.3318       99.05
        18        68.2319     13.1345     15.6902     32.3522       75.98
        19      -111.7825     -1.5080    -17.9182    -43.7362      119.29
        20        10.5289     -0.3019     13.5487      7.9252       54.86
        21         2.6546     -0.1459      3.4582      1.9890       89.04
        22       -22.2206      1.9284      7.3374     -4.3183       91.63
        23        -4.6694     -7.9150    -14.6674     -9.0840      161.17
        24       -46.8605     31.9468    -14.9303     -9.9480       92.01
        25        22.8228     -5.0566     -2.2998      5.1555       79.59
        26        29.1856      2.6331     18.4607     16.7598       72.92
        27         9.1755    -22.5453    -18.4844    -10.6181       90.98
        28        -0.4760     -3.4920     -3.4567     -2.4749      118.78
        29       -17.2239     11.9901     -3.0771     -2.7703       98.95
        30        10.7685     -3.1810      3.9901      3.8592       87.19
        31        73.8333     -4.4287      9.5216     26.3087       76.84
        32        14.3576      4.3950      0.0983      6.2837       64.72
        33         2.2492     -0.5910     -0.8085      0.2832       82.93
        34       173.6904      9.5873      5.5958     62.9579       80.42
        35       -14.4314     -6.1686     -5.1190     -8.5730      102.98
[...]
 Alpha virt. eigenvalues --    0.27048   0.27587   0.27722   0.28030   0.28491
 Alpha virt. eigenvalues --    0.28725   0.28870   0.29027   0.29511   0.29672
 Alpha virt. eigenvalues --    0.30002   0.30144   0.30305   0.30388   0.30727
 Alpha virt. eigenvalues --    0.31337   0.31657   0.32001   0.32273   0.32516
 Alpha virt. eigenvalues --    0.32955   0.33501   0.34486   0.34683   0.35009
 Alpha virt. eigenvalues --    0.35389   0.35736   0.36016   0.36177   0.36330
 Alpha virt. eigenvalues --    0.36658   0.36734   0.37509   0.37864   0.38092
 Alpha virt. eigenvalues --    0.38144   0.39148   0.39276   0.39629   0.40073
 Alpha virt. eigenvalues --    0.40449   0.40606   0.40732   0.40960   0.41527
 Alpha virt. eigenvalues --    0.41583   0.42196   0.42620   0.42944   0.43176
 Alpha virt. eigenvalues --    0.43374   0.43694   0.43875   0.44192   0.44485
 Alpha virt. eigenvalues --    0.44502   0.44703   0.44867   0.44902   0.45079
 Alpha virt. eigenvalues --    0.45403   0.45729   0.46368   0.46601   0.46855
 Alpha virt. eigenvalues --    0.47141   0.47303   0.47598   0.47757   0.48119
 Alpha virt. eigenvalues --    0.48707   0.49137   0.49824   0.50022   0.50224
 Alpha virt. eigenvalues --    0.50793   0.51269   0.51831   0.52188   0.52320
 Alpha virt. eigenvalues --    0.52604   0.52889   0.53184   0.54196   0.54692
 Alpha virt. eigenvalues --    0.54966   0.55162   0.55804   0.56080   0.56511
 Alpha virt. eigenvalues --    0.57007   0.57458   0.57766   0.58464   0.58839
 Alpha virt. eigenvalues --    0.59013   0.59219   0.59776   0.60063   0.60602
 Alpha virt. eigenvalues --    0.60960   0.61382   0.61760   0.62116   0.62363
 Alpha virt. eigenvalues --    0.62729   0.63631   0.63756   0.64325   0.64597
 Alpha virt. eigenvalues --    0.65050   0.65278   0.65717   0.66462   0.66810
 Alpha virt. eigenvalues --    0.67176   0.67453   0.67810   0.68021   0.68455
 Alpha virt. eigenvalues --    0.68990   0.69406   0.69619   0.69811   0.70184
 Alpha virt. eigenvalues --    0.70280   0.70705   0.70789   0.71123   0.72050
 Alpha virt. eigenvalues --    0.72163   0.72531   0.72741   0.73383   0.73891
 Alpha virt. eigenvalues --    0.74320   0.74640   0.75376   0.75883   0.76027
 Alpha virt. eigenvalues --    0.76478   0.76893   0.77232   0.77286   0.77903
 Alpha virt. eigenvalues --    0.78314   0.78751   0.80122   0.80357   0.80718
 Alpha virt. eigenvalues --    0.81081   0.81406   0.82655   0.82998   0.83816
 Alpha virt. eigenvalues --    0.84271   0.84421   0.84906   0.85584   0.86164
 Alpha virt. eigenvalues --    0.86945   0.87428   0.87645   0.87889   0.88054
 Alpha virt. eigenvalues --    0.88633   0.88697   0.89261   0.89577   0.90406
 Alpha virt. eigenvalues --    0.91174   0.91583   0.92268   0.92579   0.92823
 Alpha virt. eigenvalues --    0.93707   0.94816   0.95050   0.96477   0.96853
 Alpha virt. eigenvalues --    0.96982   0.97415   0.98355   0.99152   1.00703
 Alpha virt. eigenvalues --    1.01023   1.01168   1.02337   1.02591   1.03236
 Alpha virt. eigenvalues --    1.03676   1.04763   1.05326   1.05639   1.06513
 Alpha virt. eigenvalues --    1.06803   1.08079   1.08462   1.08965   1.09090
 Alpha virt. eigenvalues --    1.09655   1.10654   1.11192   1.11611   1.11932
 Alpha virt. eigenvalues --    1.12261   1.12950   1.13352   1.13599   1.13936
 Alpha virt. eigenvalues --    1.15534   1.15713   1.16628   1.17155   1.17283
 Alpha virt. eigenvalues --    1.17663   1.18240   1.19195   1.19719   1.20213
 Alpha virt. eigenvalues --    1.20948   1.21500   1.21924   1.22309   1.22681
 Alpha virt. eigenvalues --    1.23761   1.23814   1.23963   1.24995   1.25376
 Alpha virt. eigenvalues --    1.25556   1.26416   1.26895   1.27319   1.27825
 Alpha virt. eigenvalues --    1.28616   1.28831   1.29071   1.29753   1.30689
 Alpha virt. eigenvalues --    1.31583   1.32096   1.32498   1.32990   1.33532
 Alpha virt. eigenvalues --    1.33873   1.35414   1.35591   1.37340   1.37886
 Alpha virt. eigenvalues --    1.39095   1.39330   1.40056   1.40178   1.41013
 Alpha virt. eigenvalues --    1.41515   1.41845   1.42384   1.42967   1.44093
 Alpha virt. eigenvalues --    1.44625   1.45125   1.45940   1.46645   1.47270
 Alpha virt. eigenvalues --    1.47366   1.47664   1.47810   1.48640   1.48879
 Alpha virt. eigenvalues --    1.49487   1.49973   1.50734   1.51113   1.51886
 Alpha virt. eigenvalues --    1.52412   1.52819   1.53269   1.54017   1.54062
 Alpha virt. eigenvalues --    1.54491   1.54654   1.54871   1.55117   1.55199
 Alpha virt. eigenvalues --    1.55457   1.55712   1.55919   1.56799   1.57223
 Alpha virt. eigenvalues --    1.57487   1.57666   1.58400   1.58547   1.59166
 Alpha virt. eigenvalues --    1.59652   1.59915   1.60217   1.60951   1.61539
 Alpha virt. eigenvalues --    1.62162   1.62166   1.62787   1.63258   1.63655
 Alpha virt. eigenvalues --    1.64059   1.64666   1.65100   1.65470   1.65719
 Alpha virt. eigenvalues --    1.66245   1.66503   1.67599   1.67877   1.68342
 Alpha virt. eigenvalues --    1.68586   1.68739   1.69409   1.70143   1.70558
 Alpha virt. eigenvalues --    1.71378   1.71791   1.72978   1.74172   1.74355
 Alpha virt. eigenvalues --    1.74479   1.75016   1.76168   1.76420   1.76814
 Alpha virt. eigenvalues --    1.77417   1.77998   1.79015   1.79195   1.79716
 Alpha virt. eigenvalues --    1.80117   1.80597   1.80916   1.80976   1.81889
 Alpha virt. eigenvalues --    1.82595   1.82943   1.83398   1.83715   1.84022
 Alpha virt. eigenvalues --    1.84544   1.84773   1.85525   1.85903   1.86391
 Alpha virt. eigenvalues --    1.86806   1.87118   1.87332   1.88128   1.88323
 Alpha virt. eigenvalues --    1.89397   1.89554   1.90522   1.91289   1.91828
 Alpha virt. eigenvalues --    1.92175   1.93982   1.94423   1.95554   1.96009
 Alpha virt. eigenvalues --    1.96525   1.96937   1.97231   1.97512   1.99062
 Alpha virt. eigenvalues --    2.00116   2.00526   2.01088   2.01454   2.02065
 Alpha virt. eigenvalues --    2.02910   2.04532   2.05347   2.06457   2.07295
 Alpha virt. eigenvalues --    2.07616   2.08443   2.08994   2.09852   2.10244
 Alpha virt. eigenvalues --    2.10803   2.11461   2.11616   2.12266   2.13302
 Alpha virt. eigenvalues --    2.13806   2.15183   2.15500   2.16431   2.17276
 Alpha virt. eigenvalues --    2.17515   2.17960   2.18380   2.18834   2.19079
 Alpha virt. eigenvalues --    2.19370   2.19606   2.21163   2.21712   2.21918
 Alpha virt. eigenvalues --    2.23247   2.24089   2.24182   2.25671   2.26760
 Alpha virt. eigenvalues --    2.27271   2.27514   2.28091   2.28893   2.29646
 Alpha virt. eigenvalues --    2.30504   2.31043   2.31689   2.32120   2.33107
 Alpha virt. eigenvalues --    2.34315   2.34839   2.35655   2.36253   2.37287
 Alpha virt. eigenvalues --    2.37653   2.38238   2.39304   2.39875   2.40350
 Alpha virt. eigenvalues --    2.40927   2.41970   2.42927   2.44096   2.44944
 Alpha virt. eigenvalues --    2.45494   2.46480   2.47285   2.47551   2.48818
 Alpha virt. eigenvalues --    2.49037   2.49459   2.49770   2.50587   2.51303
 Alpha virt. eigenvalues --    2.52386   2.52658   2.53590   2.53710   2.54979
 Alpha virt. eigenvalues --    2.56095   2.56677   2.56902   2.57475   2.58105
 Alpha virt. eigenvalues --    2.58591   2.58917   2.59356   2.59497   2.59889
 Alpha virt. eigenvalues --    2.60508   2.60618   2.61684   2.61835   2.62261
 Alpha virt. eigenvalues --    2.62767   2.63053   2.63466   2.64204   2.64334
 Alpha virt. eigenvalues --    2.65099   2.65397   2.65555   2.66237   2.66422
 Alpha virt. eigenvalues --    2.66750   2.66985   2.67118   2.68045   2.68319
 Alpha virt. eigenvalues --    2.68772   2.69426   2.69913   2.70046   2.70380
 Alpha virt. eigenvalues --    2.70764   2.71275   2.71434   2.72429   2.72564
 Alpha virt. eigenvalues --    2.73240   2.73725   2.74212   2.75658   2.76416
 Alpha virt. eigenvalues --    2.76555   2.77158   2.77647   2.78098   2.78561
 Alpha virt. eigenvalues --    2.78764   2.79164   2.79622   2.80131   2.80768
 Alpha virt. eigenvalues --    2.81425   2.82558   2.83201   2.83781   2.83988
 Alpha virt. eigenvalues --    2.84053   2.84503   2.84981   2.85533   2.85632
 Alpha virt. eigenvalues --    2.85707   2.86444   2.87091   2.87784   2.88485
 Alpha virt. eigenvalues --    2.88769   2.89177   2.90242   2.90597   2.91037
 Alpha virt. eigenvalues --    2.92112   2.92600   2.93009   2.93302   2.93849
 Alpha virt. eigenvalues --    2.94170   2.94395   2.94704   2.95254   2.96449
 Alpha virt. eigenvalues --    2.97111   2.98116   2.98316   2.99062   2.99958
 Alpha virt. eigenvalues --    3.00580   3.01344   3.01743   3.01786   3.02070
 Alpha virt. eigenvalues --    3.02773   3.03841   3.04579   3.05485   3.06029
 Alpha virt. eigenvalues --    3.06272   3.06709   3.06932   3.07805   3.08494
 Alpha virt. eigenvalues --    3.09049   3.09396   3.09713   3.10244   3.10680
 Alpha virt. eigenvalues --    3.10994   3.11181   3.11519   3.11839   3.12082
 Alpha virt. eigenvalues --    3.12169   3.12659   3.13197   3.13579   3.13731
 Alpha virt. eigenvalues --    3.14046   3.14498   3.15327   3.15615   3.16177
 Alpha virt. eigenvalues --    3.16252   3.16801   3.17066   3.17712   3.18398
 Alpha virt. eigenvalues --    3.18782   3.19148   3.19532   3.20317   3.20685
 Alpha virt. eigenvalues --    3.20927   3.21286   3.21842   3.22007   3.22810
 Alpha virt. eigenvalues --    3.23230   3.24275   3.24766   3.24951   3.25320
 Alpha virt. eigenvalues --    3.26024   3.26484   3.26923   3.27112   3.27936
 Alpha virt. eigenvalues --    3.28690   3.29303   3.29627   3.29959   3.30590
 Alpha virt. eigenvalues --    3.31017   3.31967   3.32333   3.32855   3.33223
 Alpha virt. eigenvalues --    3.33625   3.34005   3.34749   3.35135   3.35898
 Alpha virt. eigenvalues --    3.36071   3.36185   3.37020   3.37500   3.37785
 Alpha virt. eigenvalues --    3.38481   3.39023   3.39297   3.39934   3.40044
 Alpha virt. eigenvalues --    3.40516   3.41326   3.41681   3.42186   3.42504
 Alpha virt. eigenvalues --    3.42708   3.43225   3.43986   3.44006   3.44813
 Alpha virt. eigenvalues --    3.44853   3.45131   3.45412   3.46351   3.46812
 Alpha virt. eigenvalues --    3.47088   3.47753   3.48060   3.48714   3.49684
 Alpha virt. eigenvalues --    3.50243   3.50713   3.51275   3.51375   3.51401
 Alpha virt. eigenvalues --    3.52667   3.53047   3.53562   3.54487   3.54659
 Alpha virt. eigenvalues --    3.55301   3.55785   3.57257   3.57923   3.58262
 Alpha virt. eigenvalues --    3.59175   3.59392   3.59772   3.60799   3.61180
 Alpha virt. eigenvalues --    3.62221   3.62840   3.63218   3.64558   3.64781
 Alpha virt. eigenvalues --    3.65193   3.65663   3.66872   3.67739   3.68374
 Alpha virt. eigenvalues --    3.69843   3.70179   3.70890   3.71502   3.71830
 Alpha virt. eigenvalues --    3.72147   3.72543   3.74802   3.77828   3.78389
 Alpha virt. eigenvalues --    3.79740   3.80107   3.80876   3.81543   3.82233
 Alpha virt. eigenvalues --    3.82876   3.84072   3.85661   3.86297   3.87816
 Alpha virt. eigenvalues --    3.88345   3.89822   3.90367   3.91160   3.92313
 Alpha virt. eigenvalues --    3.92684   3.93513   3.94509   3.95244   3.95680
 Alpha virt. eigenvalues --    3.96095   3.96810   3.97549   3.97948   3.99250
 Alpha virt. eigenvalues --    3.99852   4.01008   4.02082   4.02357   4.02835
 Alpha virt. eigenvalues --    4.06420   4.07019   4.07984   4.09999   4.10675
 Alpha virt. eigenvalues --    4.11744   4.11919   4.13490   4.15242   4.16043
 Alpha virt. eigenvalues --    4.16172   4.16511   4.16916   4.17654   4.18237
 Alpha virt. eigenvalues --    4.19157   4.20167   4.20267   4.20504   4.22485
 Alpha virt. eigenvalues --    4.22827   4.23055   4.23529   4.24569   4.25317
 Alpha virt. eigenvalues --    4.27333   4.27981   4.28963   4.29365   4.29572
 Alpha virt. eigenvalues --    4.30149   4.30980   4.31457   4.33350   4.34600
 Alpha virt. eigenvalues --    4.35811   4.36286   4.37199   4.38533   4.39906
 Alpha virt. eigenvalues --    4.40788   4.42169   4.42726   4.44643   4.44738
 Alpha virt. eigenvalues --    4.46218   4.48430   4.48769   4.51908   4.52327
 Alpha virt. eigenvalues --    4.53855   4.54574   4.56089   4.57189   4.59607
 Alpha virt. eigenvalues --    4.59703   4.60104   4.60379   4.60699   4.61908
 Alpha virt. eigenvalues --    4.65451   4.69377   4.71133   4.71947   4.73440
 Alpha virt. eigenvalues --    4.74162   4.77261   4.78013   4.78894   4.79715
 Alpha virt. eigenvalues --    4.79874   4.80664   4.81321   4.84974   4.86339
 Alpha virt. eigenvalues --    4.88386   4.89503   4.91586   4.93094   4.96275
 Alpha virt. eigenvalues --    4.96921   4.97697   4.98583   4.99806   5.01398
 Alpha virt. eigenvalues --    5.02357   5.04691   5.07037   5.09235   5.10035
 Alpha virt. eigenvalues --    5.10675   5.12003   5.13122   5.13589   5.16461
 Alpha virt. eigenvalues --    5.18263   5.19009   5.20299   5.21544   5.23264
 Alpha virt. eigenvalues --    5.25894   5.26832   5.27646   5.28191   5.30732
 Alpha virt. eigenvalues --    5.34254   5.35484   5.36915   5.40552   5.42924
 Alpha virt. eigenvalues --    5.44556   5.46679   5.53051   5.54472   5.55185
 Alpha virt. eigenvalues --    5.55757   5.67069   5.68155   5.85323   5.87580
 Alpha virt. eigenvalues --    5.92711   5.96255   6.00052   6.01359   6.12972
 Alpha virt. eigenvalues --    6.14971   8.90541   8.90817   9.48515   9.49781
 Alpha virt. eigenvalues --    9.53051   9.54656  20.34281  20.35727  22.22188
 Alpha virt. eigenvalues --   22.23274  22.41424  22.43879  22.60626  22.62164
 Alpha virt. eigenvalues --   22.63407  22.65552  22.67860  22.67891  22.69212
 Alpha virt. eigenvalues --   22.69527  22.72485  22.74215  22.77327  22.77987
 Alpha virt. eigenvalues --   22.80560  22.88659  22.95125  22.95172  22.98935
 Alpha virt. eigenvalues --   23.05935  23.09840  23.42722  23.44188  33.12632
 Alpha virt. eigenvalues --   33.13454
          Condensed to atoms (all electrons):
 Mulliken charges:
               1
     1  C   -0.380031
     2  C   -0.048590
     3  C   -0.251015
     4  C   -0.069524
     5  C    0.232027
     6  S    0.016051
     7  C    0.023561
     8  C    0.180084
     9  N    0.109997
    10  C   -0.198513
    11  C   -0.172462
    12  C   -0.123344
    13  C   -0.319783
    14  C   -0.169374
    15  C   -0.425619
    16  C   -0.274222
    17  C   -0.010387
    18  C   -0.423860
    19  C    0.243873
    20  S    0.045751
    21  C    0.008293
    22  C    0.185830
    23  N    0.116527
    24  C   -0.196648
    25  C   -0.167430
    26  C   -0.128520
    27  C   -0.317322
    28  C   -0.200672
    29  C   -0.424912
    30  H    0.176310
    31  H    0.156339
    32  H    0.151038
    33  H    0.159640
    34  H    0.174895
    35  H    0.167054
    36  H    0.168216
    37  H    0.176780
    38  H    0.168894
    39  H    0.167404
    40  H    0.155632
    41  H    0.154342
    42  H    0.153456
    43  H    0.150328
    44  H    0.172727
    45  H    0.174214
    46  H    0.174295
    47  H    0.167682
    48  H    0.168613
    49  H    0.181404
    50  H    0.177250
    51  H    0.173147
    52  H    0.155533
    53  H    0.154677
    54  H    0.160365
 Sum of Mulliken charges =   1.00000
 Mulliken charges with hydrogens summed into heavy atoms:
               1
     1  C   -0.203721
     2  C    0.107750
     3  C   -0.099977
     4  C    0.090116
     5  C    0.232027
     6  S    0.016051
     7  C    0.023561
     8  C    0.180084
     9  N    0.109997
    10  C   -0.023619
    11  C   -0.005408
    12  C    0.044872
    13  C   -0.143004
    14  C    0.166924
    15  C    0.037811
    16  C   -0.123894
    17  C    0.162339
    18  C   -0.249646
    19  C    0.243873
    20  S    0.045751
    21  C    0.008293
    22  C    0.185830
    23  N    0.116527
    24  C   -0.022353
    25  C    0.000252
    26  C    0.040093
    27  C   -0.135917
    28  C    0.149725
    29  C    0.045664
 Electronic spatial extent (au):  <R**2>=          33470.2112
 Charge=              1.0000 electrons
 Dipole moment (field-independent basis, Debye):
    X=             -1.0349    Y=              0.2911    Z=              0.6319  Tot=              1.2470
 Quadrupole moment (field-independent basis, Debye-Ang):
   XX=             38.7033   YY=           -145.2352   ZZ=           -192.7127
   XY=             27.3697   XZ=              4.8028   YZ=              5.1493
 Traceless Quadrupole moment (field-independent basis, Debye-Ang):
   XX=            138.4515   YY=            -45.4870   ZZ=            -92.9645
   XY=             27.3697   XZ=              4.8028   YZ=              5.1493
 Octapole moment (field-independent basis, Debye-Ang**2):
  XXX=            -95.2136  YYY=              6.9030  ZZZ=              4.6321  XYY=            -44.0484
  XXY=             18.1510  XXZ=             -8.2108  XZZ=              5.3590  YZZ=             -0.8395
  YYZ=              4.2946  XYZ=             23.9056
 Hexadecapole moment (field-independent basis, Debye-Ang**3):
 XXXX=         -26366.0491 YYYY=          -2460.0746 ZZZZ=           -382.3983 XXXY=            779.9847
 XXXZ=             -5.4412 YYYX=            115.9953 YYYZ=             37.7553 ZZZX=              1.1704
 ZZZY=              6.3972 XXYY=          -6084.2007 XXZZ=          -7775.7458 YYZZ=           -546.8444
 XXYZ=            252.8821 YYXZ=             36.1601 ZZXY=             68.5040
 N-N= 2.585855029803D+03 E-N=-9.538775940312D+03  KE= 1.864923477472D+03
 Unable to Open any file for archive entry.
 1\1\GINC-CN04\SP\RPBE1PBE TD-FC\def2TZVP\C25H25N2S2(1+)\2100011873\05-
 Nov-2023\0\\# td=(nstates=150) PBE1PBE/def2TZVP scrf(smd, solvent=etha
 nol)\\A-4\\1,1\C,0,-3.663712,-1.051948,-0.111557\C,0,-2.389638,-0.4799
 79,-0.083458\C,0,-1.194967,-1.195004,-0.064041\C,0,0.058349,-0.578322,
 -0.035613\C,0,-4.855344,-0.323764,-0.124892\S,0,-4.926662,1.436711,-0.
 060618\C,0,-6.688233,1.402029,-0.083292\C,0,-7.154955,0.079357,-0.1394
 52\N,0,-6.111858,-0.857268,-0.18359\C,0,-7.565153,2.482703,-0.048916\C
 ,0,-8.934956,2.22022,-0.065794\C,0,-9.407072,0.90276,-0.113224\C,0,-8.
 529361,-0.179533,-0.14882\C,0,-6.366284,-2.306872,-0.248314\C,0,-6.467
 137,-2.955883,1.133259\C,0,1.282162,-1.246091,-0.016052\C,0,2.511127,-
 0.582889,0.011938\C,0,3.741215,-1.244345,-0.008435\C,0,5.052439,-0.749
 02,0.008808\S,0,6.36259,-1.866987,-0.365292\C,0,7.562983,-0.600806,-0.
 16552\C,0,6.941017,0.612357,0.169846\N,0,5.544832,0.495298,0.283261\C,
 0,8.946272,-0.695535,-0.30211\C,0,9.708364,0.454142,-0.100703\C,0,9.09
 2982,1.668657,0.22877\C,0,7.709445,1.764545,0.3665\C,0,4.732809,1.6230
 27,0.770139\C,0,4.282282,2.569892,-0.344236\H,0,-3.731831,-2.134826,-0
 .113428\H,0,-2.310249,0.607987,-0.076294\H,0,-1.237617,-2.283434,-0.07
 2611\H,0,0.079156,0.512977,-0.027655\H,0,-7.192939,3.501353,-0.008437\
 H,0,-9.638205,3.046285,-0.038434\H,0,-10.476042,0.714855,-0.119701\H,0
 ,-8.914544,-1.192671,-0.174894\H,0,-7.289207,-2.442036,-0.816617\H,0,-
 5.570728,-2.757498,-0.845647\H,0,-6.666359,-4.026758,1.023381\H,0,-5.5
 36643,-2.835556,1.696522\H,0,-7.280055,-2.514652,1.717995\H,0,1.279871
 ,-2.33528,-0.024232\H,0,2.47239,0.50228,0.013643\H,0,3.691082,-2.32676
 9,-0.105404\H,0,9.416627,-1.639291,-0.55871\H,0,10.787594,0.40544,-0.2
 03502\H,0,9.700309,2.555856,0.37729\H,0,7.251286,2.716142,0.611187\H,0
 ,3.887111,1.202637,1.316886\H,0,5.342782,2.154926,1.505154\H,0,3.66871
 9,2.054906,-1.089954\H,0,3.6925,3.387191,0.083941\H,0,5.141488,3.00594
 6,-0.862588\\Version=ES64L-G16RevC.02\State=1-A\HF=-1872.3198378\RMSD=
 5.424e-09\PG=C01 [X(C25H25N2S2)]\\@
 The archive entry for this job was punched.


 THERE ARE PEOPLE SO ADDICTED TO EXAGERATING THEY
 CAN'T TELL THE TRUTH WITHOUT LYING. -- FORTUNE COOKIE
 Job cpu time:       4 days  4 hours 34 minutes 14.5 seconds.
 Elapsed time:       0 days  2 hours 55 minutes 43.9 seconds.
 File lengths (MBytes):  RWF=  43424 Int=      0 D2E=      0 Chk=   4592 Scr=     32
 Normal termination of Gaussian 16 at Sun Nov  5 19:26:26 2023.
