 Entering Gaussian System, Link 0=g16
 Initial command:
 /nfs-share/home/2100011873/Gaussian16_AVX2/g16/l1.exe "/nfs-share/home/2100011873/GaussTmp/Gau-183206.inp" -scrdir="/nfs-share/home/2100011873/GaussTmp/"
 Entering Link 1 = /nfs-share/home/2100011873/Gaussian16_AVX2/g16/l1.exe PID=    183207.
  
 Copyright (c) 1988-2021, Gaussian, Inc.  All Rights Reserved.
  
 This is part of the Gaussian(R) 16 program.  It is based on
 the Gaussian(R) 09 system (copyright 2009, Gaussian, Inc.),
 the Gaussian(R) 03 system (copyright 2003, Gaussian, Inc.),
 the Gaussian(R) 98 system (copyright 1998, Gaussian, Inc.),
 the Gaussian(R) 94 system (copyright 1995, Gaussian, Inc.),
 the Gaussian 92(TM) system (copyright 1992, Gaussian, Inc.),
 the Gaussian 90(TM) system (copyright 1990, Gaussian, Inc.),
 the Gaussian 88(TM) system (copyright 1988, Gaussian, Inc.),
 the Gaussian 86(TM) system (copyright 1986, Carnegie Mellon
 University), and the Gaussian 82(TM) system (copyright 1983,
 Carnegie Mellon University). Gaussian is a federally registered
 trademark of Gaussian, Inc.
  
 This software contains proprietary and confidential information,
 including trade secrets, belonging to Gaussian, Inc.
  
 This software is provided under written license and may be
 used, copied, transmitted, or stored only in accord with that
 written license.
  
 The following legend is applicable only to US Government
 contracts under FAR:
  
                    RESTRICTED RIGHTS LEGEND
  
 Use, reproduction and disclosure by the US Government is
 subject to restrictions as set forth in subparagraphs (a)
 and (c) of the Commercial Computer Software - Restricted
 Rights clause in FAR 52.227-19.
  
 Gaussian, Inc.
 340 Quinnipiac St., Bldg. 40, Wallingford CT 06492
  
  
 ---------------------------------------------------------------
 Warning -- This program may not be used in any manner that
 competes with the business of Gaussian, Inc. or will provide
 assistance to any competitor of Gaussian, Inc.  The licensee
 of this program is prohibited from giving any competitor of
 Gaussian, Inc. access to this program.  By using this program,
 the user acknowledges that Gaussian, Inc. is engaged in the
 business of creating and licensing software in the field of
 computational chemistry and represents and warrants to the
 licensee that it is not a competitor of Gaussian, Inc. and that
 it will not use this program in any manner prohibited above.
 ---------------------------------------------------------------
  

 Cite this work as:
 Gaussian 16, Revision C.02,
 M. J. Frisch, G. W. Trucks, H. B. Schlegel, G. E. Scuseria, 
 M. A. Robb, J. R. Cheeseman, G. Scalmani, V. Barone, 
 G. A. Petersson, H. Nakatsuji, X. Li, M. Caricato, A. V. Marenich, 
 J. Bloino, B. G. Janesko, R. Gomperts, B. Mennucci, H. P. Hratchian, 
 J. V. Ortiz, A. F. Izmaylov, J. L. Sonnenberg, D. Williams-Young, 
 F. Ding, F. Lipparini, F. Egidi, J. Goings, B. Peng, A. Petrone, 
 T. Henderson, D. Ranasinghe, V. G. Zakrzewski, J. Gao, N. Rega, 
 G. Zheng, W. Liang, M. Hada, M. Ehara, K. Toyota, R. Fukuda, 
 J. Hasegawa, M. Ishida, T. Nakajima, Y. Honda, O. Kitao, H. Nakai, 
 T. Vreven, K. Throssell, J. A. Montgomery, Jr., J. E. Peralta, 
 F. Ogliaro, M. J. Bearpark, J. J. Heyd, E. N. Brothers, K. N. Kudin, 
 V. N. Staroverov, T. A. Keith, R. Kobayashi, J. Normand, 
 K. Raghavachari, A. P. Rendell, J. C. Burant, S. S. Iyengar, 
 J. Tomasi, M. Cossi, J. M. Millam, M. Klene, C. Adamo, R. Cammi, 
 J. W. Ochterski, R. L. Martin, K. Morokuma, O. Farkas, 
 J. B. Foresman, and D. J. Fox, Gaussian, Inc., Wallingford CT, 2019.
 
 ******************************************
 Gaussian 16:  ES64L-G16RevC.02  7-Dec-2021
                 4-Nov-2023 
 ******************************************
 %nprocshared=36
 Will use up to   36 processors via shared memory.
 %mem=128GB
 ------------------------------------------------------------
 # td=(nstates=150) M062X/def2TZVP scrf(smd, solvent=ethanol)
 ------------------------------------------------------------
 1/38=1,172=1/1;
 2/12=2,17=6,18=5,40=1/2;
 3/5=44,7=101,11=9,25=1,30=1,70=32201,72=4,74=-55/1,2,3,8;
 4//1;
 5/5=2,38=5,53=4/2;
 8/6=1,10=1,108=150/1;
 9/41=150,42=1,70=2/14;
 6/7=2,8=2,9=2,10=2/1;
 99/5=1,9=1/99;
 ---
 A-2
 ---
 Symbolic Z-matrix:
 Charge =  1 Multiplicity = 1
 C                     1.18593   1.12419   0.25907 
 C                    -0.06404   0.51889   0.18474 
 C                    -1.25506   1.23243   0.20607 
 C                    -2.57691   0.77597   0.13437 
 C                     2.39263   0.43147   0.17128 
 S                    -3.82767   1.97001  -0.18708 
 C                    -5.07788   0.74479  -0.13478 
 C                    -4.5092   -0.50864   0.11385 
 N                    -3.11837  -0.45818   0.27972 
 S                     2.5052   -1.30012  -0.12511 
 C                     4.26032  -1.22576  -0.10255 
 C                     4.68878   0.08701   0.11942 
 N                     3.62751   0.98166   0.28741 
 C                     5.15932  -2.26746  -0.2795 
 C                     6.51791  -1.9736   -0.23726 
 C                     6.95394  -0.66384  -0.02533 
 C                     6.05157   0.37821   0.15346 
 C                    -6.4468    0.90418  -0.30422 
 C                    -7.25123  -0.22611  -0.22641 
 C                    -6.68975  -1.48249   0.01487 
 C                    -5.32005  -1.6405    0.18625 
 C                     3.84714   2.41567   0.55458 
 C                     3.91176   3.24964  -0.71763 
 C                    -2.36937  -1.66031   0.69242 
 C                    -1.91885  -2.52299  -0.47911 
 H                     1.22885   2.1992    0.37656 
 H                    -0.09664  -0.55695   0.07224 
 H                    -1.16519   2.31437   0.2242 
 H                     4.81396  -3.27995  -0.44835 
 H                     7.24042  -2.76872  -0.37396 
 H                     8.01554  -0.44971  -0.00207 
 H                     6.40682   1.38809   0.30607 
 H                    -6.87574   1.88074  -0.49123 
 H                    -8.32188  -0.12916  -0.35743 
 H                    -7.33033  -2.35428   0.06736 
 H                    -4.90197  -2.62169   0.36374 
 H                     3.04859   2.7543    1.21217 
 H                     4.77271   2.49485   1.12204 
 H                     4.08254   4.2955   -0.45252 
 H                     4.72891   2.92447  -1.36454 
 H                     2.9782    3.18722  -1.27998 
 H                    -1.53167  -1.32932   1.3026 
 H                    -3.02767  -2.2247    1.35177 
 H                    -1.2761   -1.97256  -1.16835 
 H                    -1.35915  -3.37917  -0.09602 
 H                    -2.77567  -2.8996   -1.0408 
 
                          Input orientation:                          
 ---------------------------------------------------------------------
 Center     Atomic      Atomic             Coordinates (Angstroms)
 Number     Number       Type             X           Y           Z
 ---------------------------------------------------------------------
      1          6           0        1.185932    1.124188    0.259065
      2          6           0       -0.064042    0.518894    0.184736
      3          6           0       -1.255062    1.232433    0.206071
      4          6           0       -2.576908    0.775971    0.134368
      5          6           0        2.392634    0.431471    0.171283
      6         16           0       -3.827667    1.970009   -0.187075
      7          6           0       -5.077877    0.744792   -0.134775
      8          6           0       -4.509195   -0.508640    0.113846
      9          7           0       -3.118372   -0.458179    0.279721
     10         16           0        2.505198   -1.300121   -0.125106
     11          6           0        4.260315   -1.225762   -0.102553
     12          6           0        4.688784    0.087010    0.119416
     13          7           0        3.627512    0.981655    0.287411
     14          6           0        5.159317   -2.267461   -0.279503
     15          6           0        6.517913   -1.973596   -0.237257
     16          6           0        6.953940   -0.663841   -0.025333
     17          6           0        6.051566    0.378213    0.153458
     18          6           0       -6.446804    0.904176   -0.304215
     19          6           0       -7.251229   -0.226106   -0.226408
     20          6           0       -6.689747   -1.482485    0.014868
     21          6           0       -5.320051   -1.640504    0.186250
     22          6           0        3.847144    2.415669    0.554580
     23          6           0        3.911762    3.249637   -0.717632
     24          6           0       -2.369369   -1.660308    0.692423
     25          6           0       -1.918854   -2.522991   -0.479110
     26          1           0        1.228852    2.199196    0.376562
     27          1           0       -0.096636   -0.556945    0.072235
     28          1           0       -1.165193    2.314370    0.224199
     29          1           0        4.813961   -3.279951   -0.448352
     30          1           0        7.240415   -2.768718   -0.373960
     31          1           0        8.015538   -0.449707   -0.002068
     32          1           0        6.406822    1.388085    0.306065
     33          1           0       -6.875736    1.880738   -0.491225
     34          1           0       -8.321880   -0.129159   -0.357431
     35          1           0       -7.330326   -2.354283    0.067360
     36          1           0       -4.901973   -2.621689    0.363736
     37          1           0        3.048585    2.754296    1.212168
     38          1           0        4.772710    2.494849    1.122044
     39          1           0        4.082538    4.295496   -0.452515
     40          1           0        4.728911    2.924468   -1.364544
     41          1           0        2.978199    3.187215   -1.279982
     42          1           0       -1.531667   -1.329317    1.302601
     43          1           0       -3.027666   -2.224702    1.351768
     44          1           0       -1.276100   -1.972556   -1.168349
     45          1           0       -1.359149   -3.379171   -0.096017
     46          1           0       -2.775672   -2.899604   -1.040801
 ---------------------------------------------------------------------
                    Distance matrix (angstroms):
                    1          2          3          4          5
     1  C    0.000000
     2  C    1.390806   0.000000
     3  C    2.443967   1.388568   0.000000
     4  C    3.780975   2.526484   1.400277   0.000000
     5  C    1.394164   2.458268   3.734761   4.981605   0.000000
     6  S    5.103982   4.050784   2.704973   1.758821   6.417762
     7  C    6.287635   5.029081   3.868835   2.515603   7.483340
     8  C    5.926355   4.562920   3.691778   2.320427   6.965799
     9  N    4.585994   3.208212   2.517045   1.355521   5.583406
    10  S    2.786633   3.163196   4.545664   5.495934   1.760377
    11  C    3.886498   4.671876   6.046268   7.128161   2.511900
    12  C    3.655846   4.772855   6.053826   7.298299   2.322423
    13  N    2.445901   3.721863   4.889687   6.209715   1.356876
    14  C    5.251774   5.938246   7.323203   8.323638   3.891269
    15  C    6.186487   7.050725   8.419875   9.508627   4.792617
    16  C    6.045481   7.120047   8.428352   9.640313   4.695091
    17  C    4.923619   6.117306   7.356580   8.637658   3.659363
    18  C    7.656654   6.413047   5.227077   3.896779   8.864830
    19  C    8.558310   7.237384   6.186145   4.794121   9.674433
    20  C    8.299440   6.923463   6.078087   4.693650   9.283175
    21  C    7.069416   5.682309   4.977780   3.656074   7.986164
    22  C    2.972760   4.362558   5.249192   6.643315   2.489891
    23  C    3.591882   4.906959   5.623025   6.996268   3.322646
    24  C    4.536671   3.212662   3.137861   2.507978   5.227217
    25  C    4.846289   3.624098   3.874700   3.419436   5.266952
    26  H    1.082261   2.128799   2.670866   4.070385   2.126354
    27  H    2.122756   1.082196   2.135822   2.816429   2.680157
    28  H    2.635439   2.106615   1.085814   2.089900   4.025698
    29  H    5.749737   6.215057   7.590976   8.450740   4.474531
    30  H    7.225801   8.029672   9.408442  10.450026   5.834336
    31  H    7.013477   8.139576   9.424274  10.663996   5.694170
    32  H    5.227767   6.530107   7.664117   9.006196   4.128799
    33  H    8.131777   6.979306   5.700745   4.482388   9.404359
    34  H    9.609861   8.300952   7.218822   5.836594  10.742190
    35  H    9.201259   7.814589   7.056388   5.691921  10.114701
    36  H    7.148786   5.770691   5.308397   4.123425   7.910127
    37  H    2.652383   3.967504   4.674364   6.059834   2.628541
    38  H    3.935533   5.308212   6.226294   7.612288   3.290325
    39  H    4.353604   5.644726   6.189189   7.555111   4.263284
    40  H    4.292996   5.582065   6.413871   7.761299   3.745930
    41  H    3.136394   4.303553   4.893876   6.218818   3.169098
    42  H    3.807098   2.611404   2.800259   2.624792   4.447515
    43  H    5.492128   4.203849   4.050497   3.269447   6.150484
    44  H    4.205822   3.083382   3.487324   3.308107   4.586237
    45  H    5.184955   4.117163   4.622660   4.336037   5.354280
    46  H    5.794382   4.532219   4.576098   3.863985   6.267104
                    6          7          8          9         10
     6  S    0.000000
     7  C    1.751262   0.000000
     8  C    2.588191   1.398679   0.000000
     9  N    2.572371   2.336366   1.401588   0.000000
    10  S    7.127606   7.853966   7.062949   5.700640   0.000000
    11  C    8.696870   9.543896   8.801443   7.428347   1.756836
    12  C    8.727517   9.792086   9.217247   7.827810   2.598456
    13  N    7.535362   8.718838   8.273881   6.897835   2.576094
    14  C    9.936326  10.672149   9.835055   8.491547   2.829122
    15  C   11.071837  11.910604  11.129532   9.768405   4.070384
    16  C   11.099837  12.114489  11.465030  10.079029   4.495121
    17  C   10.012443  11.139208  10.598007   9.208868   3.933336
    18  C    2.830124   1.388551   2.434164   3.643549   9.221136
    19  C    4.067585   2.382121   2.777472   4.170196   9.815887
    20  C    4.489098   2.753413   2.390184   3.724791   9.197818
    21  C    3.924587   2.418955   1.394219   2.500804   7.838834
    22  C    7.723431   9.106209   8.864211   7.540090   4.008726
    23  C    7.862423   9.350272   9.258970   8.010331   4.798938
    24  C    4.009907   3.715478   2.497988   1.475277   4.955753
    25  C    4.890389   4.558113   3.334527   2.505617   4.603582
    26  H    5.092995   6.492425   6.350321   5.096016   3.758450
    27  H    4.513683   5.152682   4.413020   3.030461   2.713078
    28  H    2.715971   4.231020   4.377661   3.391905   5.163170
    29  H   10.114746  10.683883   9.742560   8.450704   3.058529
    30  H   12.041300  12.811802  11.974942  10.633455   4.963969
    31  H   12.089283  13.148458  12.525408  11.137479   5.576934
    32  H   10.262874  11.511146  11.081243   9.702510   4.757629
    33  H    3.064507   2.156323   3.416980   4.492513   9.912307
    34  H    4.963212   3.367035   3.860398   5.252686  10.892692
    35  H    5.570714   3.836489   3.371548   4.623945   9.893727
    36  H    4.747759   3.407734   2.163723   2.805186   7.540006
    37  H    7.060866   8.478900   8.305005   7.015755   4.303704
    38  H    8.715259  10.083470   9.807710   8.467530   4.593342
    39  H    8.249224   9.829632   9.859937   8.659486   5.822897
    40  H    8.689790  10.121087   9.965665   8.702055   4.932368
    41  H    6.999703   8.495722   8.465410   7.272534   4.657645
    42  H    4.286759   4.352423   3.309429   2.079134   4.281995
    43  H    4.539123   3.902700   2.583069   2.068361   5.800741
    44  H    4.797626   4.785997   3.773589   2.790020   3.979791
    45  H    5.891995   5.553153   4.266940   3.430487   4.388220
    46  H    5.054569   4.404844   3.170965   2.796744   5.593249
                   11         12         13         14         15
    11  C    0.000000
    12  C    1.398652   0.000000
    13  N    2.329206   1.398181   0.000000
    14  C    1.387319   2.433942   3.636561   0.000000
    15  C    2.382047   2.778313   4.166918   1.390656   0.000000
    16  C    2.752696   2.390745   3.724324   2.420097   1.396599
    17  C    2.418028   1.393963   2.501624   2.825448   2.429227
    18  C   10.918777  11.173564  10.091970  12.031705  13.280435
    19  C   11.555531  11.949123  10.957632  12.577424  13.879593
    20  C   10.953700  11.486741  10.610942  11.878685  13.219192
    21  C    9.593687  10.157044   9.324421  10.508433  11.850219
    22  C    3.723245   2.514036   1.475132   4.934491   5.198621
    23  C    4.530895   3.362532   2.496928   5.673334   5.857042
    24  C    6.691302   7.293763   6.565561   7.615405   8.941266
    25  C    6.325087   7.129602   6.605473   7.085594   8.458095
    26  H    4.598876   4.061845   2.691454   5.985817   6.764845
    27  H    4.411450   4.828783   4.035204   5.538468   6.771628
    28  H    6.486558   6.264276   4.974952   7.826003   8.810772
    29  H    2.155410   3.416790   4.484450   1.083013   2.157447
    30  H    3.366804   3.861272   5.249360   2.142697   1.083012
    31  H    3.835891   3.371960   4.624648   3.396940   2.149519
    32  H    3.406854   2.163166   2.808932   3.906683   3.407116
    33  H   11.567759  11.718723  10.570376  12.731649  13.939520
    34  H   12.632463  13.021194  12.018224  13.649948  14.954459
    35  H   11.646690  12.264649  11.456488  12.494760  13.856819
    36  H    9.279739   9.968920   9.259699  10.088052  11.454039
    37  H    4.363215   3.316440   2.081487   5.647859   6.040698
    38  H    3.950333   2.609597   2.073125   4.979297   4.986024
    39  H    5.535194   4.290221   3.425796   6.652954   6.728960
    40  H    4.363097   3.202330   2.777869   5.321531   5.335010
    41  H    4.743894   3.807320   2.782593   5.959171   6.344353
    42  H    5.960892   6.488445   5.743547   6.939195   8.220827
    43  H    7.498506   8.149006   7.463577   8.348028   9.680193
    44  H    5.687312   6.440496   5.906946   6.503200   7.849431
    45  H    6.017939   6.974118   6.635556   6.615132   8.002731
    46  H    7.292953   8.123058   7.604544   7.996451   9.374108
                   16         17         18         19         20
    16  C    0.000000
    17  C    1.390008   0.000000
    18  C   13.495051  12.517801   0.000000
    19  C   14.213334  13.321931   1.389493   0.000000
    20  C   13.668284  12.877207   2.420121   1.397127   0.000000
    21  C   12.314605  11.549457   2.825867   2.429044   1.389392
    22  C    4.412693   3.028465  10.439708  11.435156  11.247798
    23  C    5.004941   3.685463  10.628828  11.701900  11.632778
    24  C    9.403840   8.680910   4.918876   5.170468   4.376799
    25  C    9.076829   8.505570   5.681408   5.811520   4.907962
    26  H    6.413668   5.159876   7.813849   8.840669   8.740126
    27  H    7.052061   6.219446   6.526961   7.168462   6.658005
    28  H    8.651724   7.472303   5.492111   6.610363   6.706760
    29  H    3.406242   3.908453  12.013847  12.447652  11.652500
    30  H    2.152700   3.405100  14.171626  14.713748  13.994820
    31  H    1.083229   2.137013  14.528717  15.270052  14.741517
    32  H    2.149317   1.081359  12.877201  13.763412  13.410633
    33  H   14.069537  13.030285   1.082880   2.156366   3.406170
    34  H   15.288782  14.391469   2.141617   1.082986   2.152663
    35  H   14.384243  13.658293   3.396503   2.149812   1.083111
    36  H   12.022779  11.358858   3.906966   3.406771   2.148402
    37  H    5.335435   3.972975   9.792077  10.818432  10.687327
    38  H    4.006440   2.655895  11.421119  12.401493  12.183306
    39  H    5.746517   4.425989  11.063005  12.204519  12.232973
    40  H    4.429470   3.246099  11.406248  12.439663  12.317052
    41  H    5.675499   4.403502   9.746541  10.835219  10.814431
    42  H    8.614627   7.857583   5.632843   6.022320   5.318600
    43  H   10.196330   9.520692   4.921652   4.931887   3.968504
    44  H    8.411467   7.808199   5.979841   6.295991   5.563070
    45  H    8.745597   8.312573   6.653919   6.683968   5.659062
    46  H   10.034698   9.491600   5.337463   5.276499   4.294490
                   21         22         23         24         25
    21  C    0.000000
    22  C   10.031235   0.000000
    23  C   10.486031   1.522564   0.000000
    24  C    2.993848   7.434892   8.096198   0.000000
    25  C    3.576259   7.661959   8.208301   1.523048   0.000000
    26  H    7.593922   2.633250   3.081995   5.286089   5.739275
    27  H    5.335838   4.962106   5.584014   2.601415   2.736749
    28  H    5.736315   5.024235   5.247594   4.179395   4.945979
    29  H   10.285364   5.863505   6.597120   7.451499   6.775303
    30  H   12.623471   6.265329   6.886119   9.732096   9.163168
    31  H   13.389974   5.088786   5.571190  10.478271  10.159637
    32  H   12.112236   2.769411   3.276989   9.298575   9.232004
    33  H    3.908743  10.787030  10.876362   5.852126   6.630509
    34  H    3.404516  12.465675  12.696771   6.235303   6.836957
    35  H    2.136544  12.162469  12.585892   5.048108   5.441610
    36  H    1.081210  10.097447  10.645363   2.728804   3.101472
    37  H    9.507936   1.088479   2.171305   7.008073   7.442152
    38  H   10.947177   1.088557   2.166874   8.274007   8.515835
    39  H   11.137899   2.145554   1.092370   8.854919   9.083456
    40  H   11.145652   2.172424   1.091770   8.696946   8.640115
    41  H    9.711728   2.171628   1.091638   7.482335   7.564984
    42  H    3.961683   6.596671   7.394530   1.087942   2.179281
    43  H    2.637186   8.332560   9.077801   1.089326   2.161147
    44  H    4.277702   6.962229   7.374846   2.180644   1.091404
    45  H    4.334903   7.817220   8.491761   2.143985   1.092279
    46  H    3.092709   8.640547   9.090620   2.169102   1.091545
                   26         27         28         29         30
    26  H    0.000000
    27  H    3.073410   0.000000
    28  H    2.401652   3.067468   0.000000
    29  H    6.599586   5.639125   8.215780   0.000000
    30  H    7.834688   7.676154   9.841231   2.480841   0.000000
    31  H    7.295146   8.113223   9.590471   4.296457   2.473243
    32  H    5.241588   6.792112   7.628900   4.989680   4.293754
    33  H    8.157133   7.226063   5.771496  12.778246  14.862601
    34  H    9.857812   8.247560   7.584675  13.508741  15.784567
    35  H    9.699964   7.453638   7.734972  12.190428  14.583313
    36  H    7.799238   5.238263   6.192550   9.772009  12.165665
    37  H    2.077932   4.707035   4.350350   6.502770   7.112730
    38  H    3.633467   5.841753   6.008110   5.984660   6.002727
    39  H    3.636670   6.425499   5.649910   7.610676   7.738312
    40  H    3.975913   6.121313   6.134883   6.272277   6.300895
    41  H    2.603946   5.030093   4.493564   6.773911   7.379736
    42  H    4.574759   2.041978   3.817553   6.865698   9.046113
    43  H    6.216096   3.606876   5.034222   8.114499  10.426293
    44  H    5.105394   2.221292   4.508794   6.270289   8.590457
    45  H    6.167597   3.096322   5.705836   6.183953   8.625683
    46  H    6.636482   3.728825   5.601731   7.622217  10.039114
                   31         32         33         34         35
    31  H    0.000000
    32  H    2.461786   0.000000
    33  H   15.080461  13.315582   0.000000
    34  H   16.344426  14.821502   2.479701   0.000000
    35  H   15.463757  14.239787   4.295820   2.472813   0.000000
    36  H   13.103946  11.998769   4.989844   4.292849   2.460944
    37  H    6.034122   3.737019  10.107265  11.834924  11.624541
    38  H    4.522164   2.135666  11.775656  13.436612  13.080899
    39  H    6.179672   3.798786  11.221244  13.170277  13.219050
    40  H    4.903398   2.822551  11.684173  13.441059  13.241630
    41  H    6.343110   4.184241   9.971412  11.812757  11.780884
    42  H    9.676001   8.449672   6.487013   7.092466   6.016712
    43  H   11.266580  10.156539   5.921056   5.944860   4.492146
    44  H    9.487561   8.514405   6.830981   7.327941   6.190827
    45  H    9.822186   9.121332   7.632533   7.688338   6.060697
    46  H   11.114458  10.223332   6.321727   6.237210   4.719139
                   36         37         38         39         40
    36  H    0.000000
    37  H    9.634958   0.000000
    38  H   10.970574   1.745864   0.000000
    39  H   11.368164   2.493096   2.489559   0.000000
    40  H   11.247255   3.080893   2.523809   1.768986   0.000000
    41  H    9.926847   2.530451   3.077234   1.769902   1.772337
    42  H    3.729699   6.137001   7.375772   8.138689   8.025160
    43  H    2.155651   7.856891   9.119912   9.814450   9.698288
    44  H    3.989438   6.834683   7.860770   8.277433   7.751096
    45  H    3.651952   7.665434   8.578314   9.414859   8.854914
    46  H    2.563419   8.424038   9.526599   9.957439   9.504914
                   41         42         43         44         45
    41  H    0.000000
    42  H    6.885324   0.000000
    43  H    8.502080   1.744175   0.000000
    44  H    6.688405   2.566060   3.079375   0.000000
    45  H    7.958127   2.487528   2.492555   1.770694   0.000000
    46  H    8.379356   3.082999   2.498676   1.767598   1.768937
                   46
    46  H    0.000000
 Stoichiometry    C21H21N2S2(1+)
 Framework group  C1[X(C21H21N2S2)]
 Deg. of freedom   132
 Full point group                 C1      NOp   1
 Largest Abelian subgroup         C1      NOp   1
 Largest concise Abelian subgroup C1      NOp   1
                         Standard orientation:                         
 ---------------------------------------------------------------------
 Center     Atomic      Atomic             Coordinates (Angstroms)
 Number     Number       Type             X           Y           Z
 ---------------------------------------------------------------------
      1          6           0        1.185932    1.124188    0.259065
      2          6           0       -0.064042    0.518894    0.184736
      3          6           0       -1.255062    1.232433    0.206071
      4          6           0       -2.576908    0.775971    0.134368
      5          6           0        2.392634    0.431471    0.171283
      6         16           0       -3.827667    1.970009   -0.187075
      7          6           0       -5.077877    0.744792   -0.134775
      8          6           0       -4.509195   -0.508640    0.113846
      9          7           0       -3.118372   -0.458179    0.279721
     10         16           0        2.505198   -1.300121   -0.125106
     11          6           0        4.260315   -1.225762   -0.102553
     12          6           0        4.688784    0.087010    0.119416
     13          7           0        3.627512    0.981655    0.287411
     14          6           0        5.159317   -2.267461   -0.279503
     15          6           0        6.517913   -1.973596   -0.237257
     16          6           0        6.953940   -0.663841   -0.025333
     17          6           0        6.051566    0.378213    0.153458
     18          6           0       -6.446804    0.904176   -0.304215
     19          6           0       -7.251229   -0.226106   -0.226408
     20          6           0       -6.689747   -1.482485    0.014868
     21          6           0       -5.320051   -1.640504    0.186250
     22          6           0        3.847144    2.415669    0.554580
     23          6           0        3.911762    3.249637   -0.717632
     24          6           0       -2.369369   -1.660308    0.692423
     25          6           0       -1.918854   -2.522991   -0.479110
     26          1           0        1.228852    2.199196    0.376562
     27          1           0       -0.096636   -0.556945    0.072235
     28          1           0       -1.165193    2.314370    0.224199
     29          1           0        4.813961   -3.279951   -0.448352
     30          1           0        7.240415   -2.768718   -0.373960
     31          1           0        8.015538   -0.449707   -0.002068
     32          1           0        6.406822    1.388085    0.306065
     33          1           0       -6.875736    1.880738   -0.491225
     34          1           0       -8.321880   -0.129159   -0.357431
     35          1           0       -7.330326   -2.354283    0.067360
     36          1           0       -4.901973   -2.621689    0.363736
     37          1           0        3.048585    2.754296    1.212168
     38          1           0        4.772710    2.494849    1.122044
     39          1           0        4.082538    4.295496   -0.452515
     40          1           0        4.728911    2.924468   -1.364544
     41          1           0        2.978199    3.187215   -1.279982
     42          1           0       -1.531667   -1.329317    1.302601
     43          1           0       -3.027666   -2.224702    1.351768
     44          1           0       -1.276100   -1.972556   -1.168349
     45          1           0       -1.359149   -3.379171   -0.096017
     46          1           0       -2.775672   -2.899604   -1.040801
 ---------------------------------------------------------------------
 Rotational constants (GHZ):           0.5429629           0.0715335           0.0638922
 Standard basis: def2TZVP (5D, 7F)
 There are  1038 symmetry adapted cartesian basis functions of A   symmetry.
 There are   913 symmetry adapted basis functions of A   symmetry.
   913 basis functions,  1479 primitive gaussians,  1038 cartesian basis functions
    96 alpha electrons       96 beta electrons
       nuclear repulsion energy      2285.6548009337 Hartrees.
 NAtoms=   46 NActive=   46 NUniq=   46 SFac= 1.00D+00 NAtFMM=   60 NAOKFM=F Big=F
 Integral buffers will be    131072 words long.
 Regular integral format.
 Two-electron integral symmetry is turned on.
 ------------------------------------------------------------------------------
 Polarizable Continuum Model (PCM)
 =================================
 Model                : PCM.
 Atomic radii         : SMD-Coulomb.
 Polarization charges : Total charges.
 Charge compensation  : None.
 Solution method      : On-the-fly selection.
 Cavity type          : VdW (van der Waals Surface) (Alpha=1.000).
 Cavity algorithm     : GePol (No added spheres)
                        Default sphere list used, NSphG=   46.
                        Lebedev-Laikov grids with approx.  5.0 points / Ang**2.
                        Smoothing algorithm: York/Karplus (Gamma=1.0000).
                        Polarization charges: spherical gaussians, with
                                              point-specific exponents (IZeta= 3).
                        Self-potential: point-specific (ISelfS= 7).
                        Self-field    : sphere-specific E.n sum rule (ISelfD= 2).
 Solvent              : Ethanol, Eps=  24.852000 Eps(inf)=   1.852593
 ------------------------------------------------------------------------------
 ------------------------------------------------------------------------------
 Atomic radii for non-electrostatic terms: SMD-CDS.
 ------------------------------------------------------------------------------
 Nuclear repulsion after PCM non-electrostatic terms =     2285.6487450168 Hartrees.
 One-electron integrals computed using PRISM.
   1 Symmetry operations used in ECPInt.
 ECPInt:  NShTT=   66066 NPrTT=  205761 LenC2=   50229 LenP2D=  107572.
 LDataN:  DoStor=T MaxTD1= 6 Len=  172
 NBasis=   913 RedAO= T EigKep=  6.82D-06  NBF=   913
 NBsUse=   913 1.00D-06 EigRej= -1.00D+00 NBFU=   913
 ExpMin= 9.52D-02 ExpMax= 6.07D+04 ExpMxC= 2.07D+03 IAcc=3 IRadAn=         5 AccDes= 0.00D+00
 Harris functional with IExCor= 1009 and IRadAn=       5 diagonalized for initial guess.
 HarFok:  IExCor= 1009 AccDes= 0.00D+00 IRadAn=         5 IDoV= 1 UseB2=F ITyADJ=14
 ICtDFT=  3500011 ScaDFX=  1.000000  1.000000  1.000000  1.000000
 FoFCou: FMM=F IPFlag=           0 FMFlag=      100000 FMFlg1=           0
         NFxFlg=           0 DoJE=T BraDBF=F KetDBF=T FulRan=T
         wScrn=  0.000000 ICntrl=       500 IOpCl=  0 I1Cent=   200000004 NGrid=           0
         NMat0=    1 NMatS0=      1 NMatT0=    0 NMatD0=    1 NMtDS0=    0 NMtDT0=    0
 Petite list used in FoFCou.
 Requested convergence on RMS density matrix=1.00D-08 within 128 cycles.
 Requested convergence on MAX density matrix=1.00D-06.
 Requested convergence on             energy=1.00D-06.
 No special actions if energy rises.
 Inv3:  Mode=1 IEnd=    37446267.
 Iteration    1 A*A^-1 deviation from unit magnitude is 3.33D-15 for    326.
 Iteration    1 A*A^-1 deviation from orthogonality  is 2.80D-15 for   1360    236.
 Iteration    1 A^-1*A deviation from unit magnitude is 3.33D-15 for   2473.
 Iteration    1 A^-1*A deviation from orthogonality  is 2.22D-15 for   2427     48.
 Error on total polarization charges =  0.06096
 SCF Done:  E(RM062X) =  -1718.58494415     A.U. after   13 cycles
            NFock= 13  Conv=0.87D-08     -V/T= 2.0035
 SMD-CDS (non-electrostatic) energy       (kcal/mol) =      -3.80
 (included in total energy above)
 DoSCS=F DFT=T ScalE2(SS,OS)=  1.000000  1.000000
 ExpMin= 9.52D-02 ExpMax= 6.07D+04 ExpMxC= 2.07D+03 IAcc=3 IRadAn=         5 AccDes= 0.00D+00
 HarFok:  IExCor=  205 AccDes= 0.00D+00 IRadAn=         5 IDoV=-2 UseB2=F ITyADJ=14
 ICtDFT= 12500011 ScaDFX=  1.000000  1.000000  1.000000  1.000000
 GSVD:  LWork=       -1353 too small for GESVD, short by        5940 words or        5940 for optimal perf.
 Range of M.O.s used for correlation:    34   913
 NBasis=   913 NAE=    96 NBE=    96 NFC=    33 NFV=     0
 NROrb=    880 NOA=    63 NOB=    63 NVA=   817 NVB=   817

 **** Warning!!: The largest alpha MO coefficient is  0.45283046D+02

 NEqPCM:  Using non-equilibrium solvation (IEInf=1, Eps=  24.8520, EpsInf=   1.8526)
 Inv3:  Mode=1 IEnd=    37446267.
 Iteration    1 A*A^-1 deviation from unit magnitude is 3.77D-15 for    895.
 Iteration    1 A*A^-1 deviation from orthogonality  is 2.33D-15 for   2443     54.
 Iteration    1 A^-1*A deviation from unit magnitude is 3.77D-15 for    895.
 Iteration    1 A^-1*A deviation from orthogonality  is 1.88D-15 for   1053    457.
 Orbital symmetries:
       Occupied  (A) (A) (A) (A) (A) (A) (A) (A) (A) (A) (A) (A)
                 (A) (A) (A) (A) (A) (A) (A) (A) (A) (A) (A) (A)
                 (A) (A) (A) (A) (A) (A) (A) (A) (A) (A) (A) (A)
                 (A) (A) (A) (A) (A) (A) (A) (A) (A) (A) (A) (A)
                 (A) (A) (A) (A) (A) (A) (A) (A) (A) (A) (A) (A)
                 (A) (A) (A) (A) (A) (A) (A) (A) (A) (A) (A) (A)
                 (A) (A) (A) (A) (A) (A) (A) (A) (A) (A) (A) (A)
                 (A) (A) (A) (A) (A) (A) (A) (A) (A) (A) (A) (A)
       Virtual   (A) (A) (A) (A) (A) (A) (A) (A) (A) (A) (A) (A)
                 (A) (A) (A) (A) (A) (A) (A) (A) (A) (A) (A) (A)
                 (A) (A) (A) (A) (A) (A) (A) (A) (A) (A) (A) (A)
                 (A) (A) (A) (A) (A) (A) (A) (A) (A) (A) (A) (A)
                 (A) (A) (A) (A) (A) (A) (A) (A) (A) (A) (A) (A)
                 (A) (A) (A) (A) (A) (A) (A) (A) (A) (A) (A) (A)
                 (A) (A) (A) (A) (A) (A) (A) (A) (A) (A) (A) (A)
                 (A) (A) (A) (A) (A) (A) (A) (A) (A) (A) (A) (A)
                 (A) (A) (A) (A) (A) (A) (A) (A) (A) (A) (A) (A)
                 (A) (A) (A) (A) (A) (A) (A) (A) (A) (A) (A) (A)
                 (A) (A) (A) (A) (A) (A) (A) (A) (A) (A) (A) (A)
                 (A) (A) (A) (A) (A) (A) (A) (A) (A) (A) (A) (A)
                 (A) (A) (A) (A) (A) (A) (A) (A) (A) (A) (A) (A)
                 (A) (A) (A) (A) (A) (A) (A) (A) (A) (A) (A) (A)
                 (A) (A) (A) (A) (A) (A) (A) (A) (A) (A) (A) (A)
                 (A) (A) (A) (A) (A) (A) (A) (A) (A) (A) (A) (A)
                 (A) (A) (A) (A) (A) (A) (A) (A) (A) (A) (A) (A)
                 (A) (A) (A) (A) (A) (A) (A) (A) (A) (A) (A) (A)
                 (A) (A) (A) (A) (A) (A) (A) (A) (A) (A) (A) (A)
                 (A) (A) (A) (A) (A) (A) (A) (A) (A) (A) (A) (A)
                 (A) (A) (A) (A) (A) (A) (A) (A) (A) (A) (A) (A)
                 (A) (A) (A) (A) (A) (A) (A) (A) (A) (A) (A) (A)
                 (A) (A) (A) (A) (A) (A) (A) (A) (A) (A) (A) (A)
                 (A) (A) (A) (A) (A) (A) (A) (A) (A) (A) (A) (A)
                 (A) (A) (A) (A) (A) (A) (A) (A) (A) (A) (A) (A)
                 (A) (A) (A) (A) (A) (A) (A) (A) (A) (A) (A) (A)
                 (A) (A) (A) (A) (A) (A) (A) (A) (A) (A) (A) (A)
                 (A) (A) (A) (A) (A) (A) (A) (A) (A) (A) (A) (A)
                 (A) (A) (A) (A) (A) (A) (A) (A) (A) (A) (A) (A)
                 (A) (A) (A) (A) (A) (A) (A) (A) (A) (A) (A) (A)
                 (A) (A) (A) (A) (A) (A) (A) (A) (A) (A) (A) (A)
                 (A) (A) (A) (A) (A) (A) (A) (A) (A) (A) (A) (A)
                 (A) (A) (A) (A) (A) (A) (A) (A) (A) (A) (A) (A)
                 (A) (A) (A) (A) (A) (A) (A) (A) (A) (A) (A) (A)
                 (A) (A) (A) (A) (A) (A) (A) (A) (A) (A) (A) (A)
                 (A) (A) (A) (A) (A) (A) (A) (A) (A) (A) (A) (A)
                 (A) (A) (A) (A) (A) (A) (A) (A) (A) (A) (A) (A)
                 (A) (A) (A) (A) (A) (A) (A) (A) (A) (A) (A) (A)
                 (A) (A) (A) (A) (A) (A) (A) (A) (A) (A) (A) (A)
                 (A) (A) (A) (A) (A) (A) (A) (A) (A) (A) (A) (A)
                 (A) (A) (A) (A) (A) (A) (A) (A) (A) (A) (A) (A)
                 (A) (A) (A) (A) (A) (A) (A) (A) (A) (A) (A) (A)
                 (A) (A) (A) (A) (A) (A) (A) (A) (A) (A) (A) (A)
                 (A) (A) (A) (A) (A) (A) (A) (A) (A) (A) (A) (A)
                 (A) (A) (A) (A) (A) (A) (A) (A) (A) (A) (A) (A)
                 (A) (A) (A) (A) (A) (A) (A) (A) (A) (A) (A) (A)
                 (A) (A) (A) (A) (A) (A) (A) (A) (A) (A) (A) (A)
                 (A) (A) (A) (A) (A) (A) (A) (A) (A) (A) (A) (A)
                 (A) (A) (A) (A) (A) (A) (A) (A) (A) (A) (A) (A)
                 (A) (A) (A) (A) (A) (A) (A) (A) (A) (A) (A) (A)
                 (A) (A) (A) (A) (A) (A) (A) (A) (A) (A) (A) (A)
                 (A) (A) (A) (A) (A) (A) (A) (A) (A) (A) (A) (A)
                 (A) (A) (A) (A) (A) (A) (A) (A) (A) (A) (A) (A)
                 (A) (A) (A) (A) (A) (A) (A) (A) (A) (A) (A) (A)
                 (A) (A) (A) (A) (A) (A) (A) (A) (A) (A) (A) (A)
                 (A) (A) (A) (A) (A) (A) (A) (A) (A) (A) (A) (A)
                 (A) (A) (A) (A) (A) (A) (A) (A) (A) (A) (A) (A)
                 (A) (A) (A) (A) (A) (A) (A) (A) (A) (A) (A) (A)
                 (A) (A) (A) (A) (A) (A) (A) (A) (A) (A) (A) (A)
                 (A) (A) (A) (A) (A) (A) (A) (A) (A) (A) (A) (A)
                 (A) (A) (A) (A) (A) (A) (A) (A) (A) (A) (A) (A)
                 (A) (A) (A) (A) (A) (A) (A) (A) (A) (A) (A) (A)
                 (A) (A) (A) (A) (A) (A) (A) (A) (A) (A) (A) (A)
                 (A) (A) (A) (A) (A) (A) (A) (A) (A) (A) (A) (A)
                 (A) (A) (A) (A) (A) (A) (A) (A) (A) (A) (A) (A)
                 (A) (A) (A) (A) (A) (A) (A) (A) (A) (A) (A) (A)
                 (A) (A) (A) (A) (A) (A) (A) (A) (A) (A) (A) (A)
                 (A) (A) (A) (A) (A) (A) (A) (A) (A) (A) (A) (A)
                 (A)
   600 initial guesses have been made.
 Convergence on wavefunction:    0.001000000000000
 Iteration     1 Dimension   600 NMult     0 NNew    600
 CISAX will form   180 AO SS matrices at one time.
 New state      3 was old state      8
 New state      4 was old state      3
 New state      5 was old state     10
 New state      6 was old state      4
 New state      7 was old state      5
 New state      8 was old state      6
 New state      9 was old state      7
 New state     10 was old state      9
 New state     13 was old state     31
 New state     14 was old state     38
 New state     15 was old state     21
 New state     16 was old state     13
 New state     17 was old state     30
 New state     19 was old state     15
 New state     20 was old state     22
 New state     21 was old state     41
 New state     22 was old state     27
 New state     23 was old state     14
 New state     24 was old state     36
 New state     25 was old state     16
 New state     26 was old state     28
 New state     27 was old state     35
 New state     28 was old state     37
 New state     29 was old state     26
 New state     30 was old state     42
 New state     31 was old state     23
 New state     32 was old state     25
 New state     33 was old state     24
 New state     34 was old state     47
 New state     35 was old state     53
 New state     36 was old state     54
 New state     37 was old state     43
 New state     38 was old state     29
 New state     39 was old state     32
 New state     40 was old state     56
 New state     41 was old state     46
 New state     42 was old state     40
 New state     43 was old state     17
 New state     44 was old state     20
 New state     45 was old state     34
 New state     46 was old state     49
 New state     47 was old state     63
 New state     48 was old state    110
 New state     49 was old state     52
 New state     50 was old state    118
 New state     51 was old state     48
 New state     52 was old state     55
 New state     53 was old state     60
 New state     54 was old state    125
 New state     55 was old state     44
 New state     56 was old state     39
 New state     57 was old state     45
 New state     58 was old state     33
 New state     59 was old state    132
 New state     60 was old state     58
 New state     61 was old state     67
 New state     62 was old state     51
 New state     63 was old state     64
 New state     64 was old state     50
 New state     65 was old state     62
 New state     66 was old state     70
 New state     67 was old state     61
 New state     68 was old state     65
 New state     69 was old state     66
 New state     70 was old state     57
 New state     71 was old state     81
 New state     72 was old state     69
 New state     73 was old state     72
 New state     75 was old state     71
 New state     76 was old state    143
 New state     77 was old state    166
 New state     78 was old state     97
 New state     79 was old state     75
 New state     80 was old state    107
 New state     81 was old state     79
 New state     82 was old state    184
 New state     83 was old state     59
 New state     84 was old state     73
 New state     85 was old state    116
 New state     86 was old state     68
 New state     87 was old state    114
 New state     89 was old state    108
 New state     90 was old state     84
 New state     91 was old state     85
 New state     92 was old state     89
 New state     93 was old state     83
 New state     94 was old state    127
 New state     95 was old state     80
 New state     96 was old state     82
 New state     97 was old state     94
 New state     98 was old state     96
 New state     99 was old state     92
 New state    100 was old state     91
 New state    101 was old state    129
 New state    103 was old state     99
 New state    104 was old state     87
 New state    105 was old state     76
 New state    106 was old state    101
 New state    107 was old state     90
 New state    108 was old state    111
 New state    109 was old state    105
 New state    110 was old state    230
 New state    111 was old state    109
 New state    112 was old state    121
 New state    113 was old state     95
 New state    114 was old state     93
 New state    115 was old state    113
 New state    116 was old state    139
 New state    117 was old state    123
 New state    118 was old state    103
 New state    119 was old state    243
 New state    120 was old state    154
 New state    121 was old state    156
 New state    122 was old state    158
 New state    123 was old state    115
 New state    124 was old state    112
 New state    125 was old state    140
 New state    126 was old state    155
 New state    127 was old state    122
 New state    128 was old state    124
 New state    129 was old state    150
 New state    130 was old state    217
 New state    131 was old state    153
 New state    132 was old state    141
 New state    133 was old state    137
 New state    134 was old state    120
 New state    135 was old state    136
 New state    136 was old state    144
 New state    137 was old state     77
 New state    138 was old state     78
 New state    139 was old state    147
 New state    140 was old state    146
 New state    141 was old state    134
 New state    142 was old state    126
 New state    143 was old state    133
 New state    144 was old state    168
 New state    145 was old state    190
 New state    146 was old state    173
 New state    147 was old state    138
 New state    148 was old state     98
 New state    149 was old state    148
 New state    150 was old state    192
 Iteration     2 Dimension   900 NMult   600 NNew    300
 New state      3 was old state      4
 New state      4 was old state      3
 New state      5 was old state      6
 New state      6 was old state      5
 New state     14 was old state     15
 New state     15 was old state     14
 New state     17 was old state     22
 New state     18 was old state     17
 New state     19 was old state     25
 New state     20 was old state     18
 New state     21 was old state     19
 New state     22 was old state     20
 New state     23 was old state     21
 New state     24 was old state     23
 New state     25 was old state     24
 New state     26 was old state     29
 New state     27 was old state     26
 New state     28 was old state     31
 New state     29 was old state     33
 New state     30 was old state     27
 New state     31 was old state     28
 New state     33 was old state     30
 New state     34 was old state     38
 New state     35 was old state     34
 New state     36 was old state     35
 New state     37 was old state     36
 New state     38 was old state     37
 New state     40 was old state     45
 New state     41 was old state     40
 New state     42 was old state     41
 New state     43 was old state     42
 New state     44 was old state     51
 New state     45 was old state     46
 New state     46 was old state     48
 New state     47 was old state     43
 New state     48 was old state     44
 New state     49 was old state     47
 New state     51 was old state     53
 New state     52 was old state     49
 New state     53 was old state     54
 New state     54 was old state     52
 New state     56 was old state     59
 New state     58 was old state     61
 New state     59 was old state     60
 New state     60 was old state     64
 New state     61 was old state     58
 New state     62 was old state     56
 New state     63 was old state     66
 New state     64 was old state     63
 New state     65 was old state     62
 New state     66 was old state     81
 New state     67 was old state     65
 New state     69 was old state     67
 New state     70 was old state     75
 New state     71 was old state     69
 New state     72 was old state     76
 New state     73 was old state     72
 New state     74 was old state     70
 New state     75 was old state     71
 New state     76 was old state     77
 New state     77 was old state     73
 New state     78 was old state     74
 New state     79 was old state     83
 New state     80 was old state     79
 New state     81 was old state     88
 New state     83 was old state     78
 New state     84 was old state     80
 New state     85 was old state     84
 New state     86 was old state     87
 New state     87 was old state     85
 New state     88 was old state     93
 New state     89 was old state     86
 New state     90 was old state     89
 New state     91 was old state     90
 New state     92 was old state     91
 New state     93 was old state     92
 New state     98 was old state     99
 New state     99 was old state     98
 New state    101 was old state    102
 New state    102 was old state    101
 New state    103 was old state    104
 New state    104 was old state    103
 New state    109 was old state    114
 New state    111 was old state    109
 New state    112 was old state    118
 New state    113 was old state    112
 New state    114 was old state    111
 New state    115 was old state    113
 New state    116 was old state    117
 New state    117 was old state    115
 New state    118 was old state    119
 New state    119 was old state    116
 No map to state    120
 New state    121 was old state    120
 New state    123 was old state    121
 New state    125 was old state    123
 New state    126 was old state    130
 New state    127 was old state    133
 New state    128 was old state    125
 New state    129 was old state    126
 New state    130 was old state    129
 New state    131 was old state    127
 New state    132 was old state    128
 No map to state    133
 New state    134 was old state    131
 New state    135 was old state    132
 New state    136 was old state    142
 New state    137 was old state    134
 New state    138 was old state    139
 New state    139 was old state    136
 New state    140 was old state    137
 New state    141 was old state    140
 New state    142 was old state    135
 New state    143 was old state    141
 New state    144 was old state    143
 New state    145 was old state    138
 New state    146 was old state    145
 New state    147 was old state    146
 New state    148 was old state    144
 New state    150 was old state    147
 Iteration     3 Dimension  1200 NMult   900 NNew    300
 New state     28 was old state     29
 New state     29 was old state     28
 New state    109 was old state    110
 New state    110 was old state    109
 New state    143 was old state    144
 New state    144 was old state    143
 New state    149 was old state    150
 New state    150 was old state    149
 Iteration     4 Dimension  1500 NMult  1200 NNew    300
 New state    147 was old state    148
 New state    148 was old state    147
 Iteration     5 Dimension  1664 NMult  1500 NNew    164
 Iteration     6 Dimension  1682 NMult  1664 NNew     18
 Iteration     7 Dimension  1684 NMult  1682 NNew      2
 ***********************************************************************
 Excited states from <AA,BB:AA,BB> singles matrix:
 ***********************************************************************
 
 Ground to excited state transition densities written to RWF  633
 Ground to excited state transition electric dipole moments (Au):
       state          X           Y           Z        Dip. S.      Osc.
         1         5.1137     -0.1854     -0.0032     26.1846      1.6873
         2         0.5027      0.4844      0.1226      0.5023      0.0554
         3        -0.0507      0.3107     -0.0722      0.1043      0.0117
         4         0.0711     -0.1087     -0.0645      0.0210      0.0024
         5        -0.1978     -0.5733     -0.0628      0.3718      0.0425
         6        -0.0487     -0.0470     -0.0001      0.0046      0.0005
         7         1.0160      0.1198      0.0323      1.0475      0.1246
         8        -0.3409     -0.8919      0.0659      0.9160      0.1103
         9         0.2855      0.1620      0.1468      0.1293      0.0158
        10         0.4889      0.7136      0.0117      0.7484      0.0965
        11        -0.5615      0.1254     -0.0042      0.3310      0.0450
        12         0.3143     -0.5796     -0.0576      0.4380      0.0609
        13        -0.4989      0.1686     -0.0349      0.2785      0.0407
        14        -1.0727     -0.2608     -0.1360      1.2371      0.1813
        15         1.0144     -0.7539     -0.1127      1.6102      0.2369
        16        -0.8608      0.3561      0.0267      0.8686      0.1283
        17        -0.1469      0.4872      0.0984      0.2686      0.0409
        18         0.3509     -0.1077      0.0850      0.1420      0.0217
        19        -0.0773      0.3348     -0.0468      0.1202      0.0184
        20        -0.0037     -0.0653     -0.0057      0.0043      0.0007
        21        -0.0373     -0.4408      0.0284      0.1965      0.0311
        22         0.2708      0.0003      0.0269      0.0741      0.0117
        23         0.1588      0.0223      0.0519      0.0284      0.0046
        24        -0.1056     -0.0104      0.1899      0.0473      0.0077
        25         0.0704     -0.0074      0.0931      0.0137      0.0022
        26        -0.1333      0.1292      0.0558      0.0376      0.0062
        27        -1.2704     -1.0518     -0.0221      2.7207      0.4489
        28         1.0037     -0.3629      0.0589      1.1426      0.1894
        29        -1.3472     -0.5450      0.0890      2.1199      0.3514
        30        -0.2594      0.1663     -0.1657      0.1224      0.0205
        31         0.4929     -0.8550      0.0687      0.9787      0.1651
        32         0.3211     -0.3464     -0.0502      0.2256      0.0382
        33        -0.0220     -0.0975     -0.0481      0.0123      0.0021
        34        -0.3233     -0.3559     -0.1824      0.2645      0.0462
        35         0.1695     -0.0736      0.0689      0.0389      0.0069
        36        -0.0696      0.0109      0.0284      0.0058      0.0010
        37         0.0277      0.0396      0.0532      0.0052      0.0009
        38         0.1287     -0.2466     -0.0034      0.0774      0.0140
        39        -0.0161     -0.0665     -0.0073      0.0047      0.0009
        40         0.3344      0.1418      0.0840      0.1390      0.0253
        41        -0.2169      0.1780     -0.0040      0.0787      0.0144
        42         0.2676     -0.2778     -0.0518      0.1515      0.0280
        43        -0.2943      0.4871     -0.0302      0.3248      0.0603
        44         0.1803     -0.2909     -0.0859      0.1245      0.0231
        45        -0.0685      0.1350     -0.0061      0.0230      0.0043
        46        -0.1044      0.0553     -0.0661      0.0183      0.0034
        47         0.1105     -0.0726      0.0129      0.0176      0.0033
        48         0.0737     -0.0127      0.0177      0.0059      0.0011
        49        -0.1065     -0.1300      0.0821      0.0350      0.0066
        50         0.0744     -0.0705      0.1804      0.0431      0.0082
        51        -0.0570     -0.0783     -0.1219      0.0242      0.0046
        52        -0.0797     -0.0749      0.1457      0.0332      0.0063
        53        -0.0152     -0.0333      0.0541      0.0043      0.0008
        54        -0.1325      0.0879     -0.0427      0.0271      0.0052
        55         0.3956     -0.7230     -0.0983      0.6889      0.1329
        56         0.5872     -0.1585      0.0874      0.3776      0.0729
        57         0.5015     -0.0564      0.0415      0.2564      0.0496
        58        -0.0541     -0.0514      0.0269      0.0063      0.0012
        59         0.1900     -0.0986     -0.0077      0.0459      0.0089
        60         0.2563      0.0250      0.0672      0.0708      0.0138
        61         0.1030     -0.0090      0.2303      0.0637      0.0125
        62         0.0789      0.1563     -0.1476      0.0525      0.0103
        63         0.4110     -0.8033     -0.0414      0.8158      0.1606
        64        -0.0991      0.2460     -0.0427      0.0722      0.0142
        65         0.0636      0.0061     -0.0085      0.0042      0.0008
        66         0.2812     -0.2811     -0.0922      0.1666      0.0329
        67         0.0506     -0.2581      0.2169      0.1162      0.0230
        68         0.0812     -0.2264     -0.1964      0.0964      0.0191
        69         0.1929      0.0470      0.1080      0.0511      0.0102
        70         0.0674     -0.2590      0.1153      0.0849      0.0170
        71        -0.0538      0.0475      0.1852      0.0394      0.0079
        72        -0.1239     -0.0884      0.0703      0.0281      0.0056
        73        -0.1933     -0.0873      0.0619      0.0488      0.0098
        74        -0.0059     -0.0268      0.0758      0.0065      0.0013
        75         0.0213      0.3801     -0.0409      0.1466      0.0296
        76         0.1214      0.2646      0.0377      0.0862      0.0174
        77        -0.2504     -0.4623      0.0245      0.2771      0.0561
        78        -0.0744      0.1905     -0.0245      0.0424      0.0086
        79         0.0325      0.6400     -0.0596      0.4142      0.0843
        80         0.1052      0.4532      0.0174      0.2167      0.0442
        81         0.4300     -0.1238      0.0675      0.2048      0.0418
        82         0.1531     -0.1273      0.0343      0.0408      0.0084
        83         0.4413      0.0983      0.0938      0.2132      0.0437
        84         0.1596     -0.0244     -0.0374      0.0275      0.0056
        85        -0.2827      0.0063     -0.0349      0.0812      0.0168
        86        -0.0133     -0.0535     -0.0695      0.0079      0.0016
        87        -0.0374     -0.0812     -0.0208      0.0084      0.0018
        88        -0.1127     -0.0857      0.0479      0.0223      0.0047
        89         0.1474      0.0577      0.0964      0.0343      0.0072
        90         0.0630      0.0130     -0.0943      0.0130      0.0027
        91        -0.0174     -0.1000      0.0878      0.0180      0.0038
        92        -0.0200      0.1077     -0.1390      0.0313      0.0066
        93        -0.0074     -0.0826     -0.1111      0.0192      0.0041
        94        -0.0155      0.0044     -0.0128      0.0004      0.0001
        95         0.0582     -0.0157      0.1080      0.0153      0.0033
        96         0.0754      0.0374     -0.0013      0.0071      0.0015
        97        -0.0989     -0.0942     -0.0836      0.0256      0.0055
        98        -0.0000      0.0064      0.0650      0.0043      0.0009
        99        -0.0176      0.0127     -0.0863      0.0079      0.0017
       100        -0.0855      0.3073      0.0231      0.1023      0.0221
       101        -0.4039      0.1143     -0.1320      0.1936      0.0421
       102         0.2744     -0.2009      0.0109      0.1158      0.0252
       103         0.2180     -0.0047     -0.0250      0.0482      0.0105
       104         0.8012     -0.1567     -0.0558      0.6696      0.1464
       105         0.2856     -0.0281     -0.0607      0.0860      0.0189
       106        -0.1067      0.4008      0.0796      0.1784      0.0392
       107         0.0639      0.3164      0.1449      0.1252      0.0275
       108         0.2303     -0.2407     -0.0121      0.1111      0.0245
       109        -0.1357      0.2643     -0.0122      0.0885      0.0196
       110         0.2833     -0.3267      0.0320      0.1880      0.0416
       111        -0.0686      0.1515     -0.0406      0.0293      0.0065
       112         0.1263      0.0604     -0.0059      0.0196      0.0044
       113        -0.0749     -0.2620     -0.0310      0.0752      0.0167
       114        -0.0495      0.1926     -0.0275      0.0403      0.0090
       115         0.0455     -0.0719     -0.0377      0.0087      0.0019
       116        -0.0588      0.1276     -0.0460      0.0219      0.0049
       117         0.0748      0.0314      0.0940      0.0154      0.0035
       118         0.0501     -0.0348     -0.0031      0.0037      0.0008
       119         0.0400      0.0430     -0.0557      0.0066      0.0015
       120         0.0872     -0.0502     -0.0849      0.0173      0.0039
       121        -0.0958      0.1147      0.0345      0.0235      0.0053
       122        -0.1746     -0.0173      0.0488      0.0332      0.0075
       123         0.0448     -0.2456      0.1031      0.0730      0.0165
       124        -0.0060      0.0413      0.0930      0.0104      0.0024
       125        -0.0256      0.0847     -0.0061      0.0079      0.0018
       126        -0.1778      0.4219      0.0500      0.2121      0.0483
       127         0.0332      0.3326      0.0159      0.1120      0.0255
       128         0.1112     -0.2341      0.0378      0.0686      0.0156
       129        -0.1167     -0.0142      0.1271      0.0300      0.0069
       130         0.1232     -0.0137      0.2673      0.0868      0.0199
       131        -0.0028      0.0207      0.0184      0.0008      0.0002
       132        -0.1809      0.0778     -0.0019      0.0388      0.0089
       133        -0.2267     -0.2367     -0.0046      0.1074      0.0248
       134         0.0003      0.0588      0.2192      0.0515      0.0119
       135        -0.0285      0.1130     -0.0535      0.0165      0.0038
       136        -0.0840      0.0639     -0.0611      0.0149      0.0035
       137        -0.1295      0.0427      0.0246      0.0192      0.0045
       138         0.0570     -0.0885     -0.1564      0.0355      0.0083
       139        -0.0470      0.1148     -0.0836      0.0224      0.0052
       140         0.0035     -0.0395     -0.0461      0.0037      0.0009
       141         0.1883      0.1523     -0.1518      0.0817      0.0192
       142        -0.0715      0.0406      0.0151      0.0070      0.0016
       143         0.0510     -0.1646      0.1369      0.0484      0.0114
       144        -0.0862     -0.0243     -0.1862      0.0427      0.0100
       145         0.0442     -0.1390     -0.1431      0.0417      0.0098
       146        -0.0029     -0.1064     -0.0668      0.0158      0.0037
       147        -0.0408     -0.0292     -0.0651      0.0068      0.0016
       148         0.1542      0.0066     -0.0852      0.0311      0.0073
       149        -0.0159     -0.0224     -0.0601      0.0044      0.0010
       150         0.0944      0.0569      0.0898      0.0202      0.0048
 Ground to excited state transition velocity dipole moments (Au):
       state          X           Y           Z        Dip. S.      Osc.
         1        -0.5125      0.0197      0.0003      0.2630      1.8142
         2        -0.0855     -0.0827     -0.0210      0.0146      0.0588
         3         0.0087     -0.0540      0.0124      0.0031      0.0124
         4        -0.0127      0.0187      0.0122      0.0007      0.0026
         5         0.0350      0.1017      0.0113      0.0117      0.0454
         6         0.0091      0.0084      0.0003      0.0002      0.0006
         7        -0.1868     -0.0248     -0.0064      0.0356      0.1329
         8         0.0630      0.1692     -0.0125      0.0328      0.1209
         9        -0.0546     -0.0311     -0.0281      0.0047      0.0172
        10        -0.0978     -0.1459     -0.0025      0.0309      0.1064
        11         0.1215     -0.0278      0.0008      0.0155      0.0508
        12        -0.0677      0.1251      0.0116      0.0204      0.0652
        13         0.1123     -0.0386      0.0088      0.0142      0.0431
        14         0.2441      0.0586      0.0307      0.0639      0.1939
        15        -0.2312      0.1736      0.0270      0.0843      0.2547
        16         0.1975     -0.0837     -0.0058      0.0460      0.1385
        17         0.0359     -0.1170     -0.0231      0.0155      0.0453
        18        -0.0853      0.0257     -0.0217      0.0084      0.0245
        19         0.0189     -0.0814      0.0101      0.0071      0.0206
        20         0.0052      0.0150      0.0017      0.0003      0.0007
        21         0.0067      0.1071     -0.0070      0.0116      0.0325
        22        -0.0678     -0.0009     -0.0065      0.0046      0.0130
        23        -0.0404     -0.0052     -0.0147      0.0019      0.0052
        24         0.0249      0.0031     -0.0452      0.0027      0.0073
        25        -0.0175      0.0026     -0.0232      0.0009      0.0023
        26         0.0347     -0.0332     -0.0141      0.0025      0.0068
        27         0.3255      0.2688      0.0060      0.1783      0.4802
        28        -0.2578      0.0932     -0.0157      0.0754      0.2022
        29         0.3464      0.1401     -0.0246      0.1402      0.3760
        30         0.0681     -0.0449      0.0437      0.0086      0.0227
        31        -0.1307      0.2241     -0.0153      0.0676      0.1780
        32        -0.0847      0.0902      0.0077      0.0154      0.0403
        33         0.0058      0.0267      0.0157      0.0010      0.0025
        34         0.0868      0.0977      0.0502      0.0196      0.0499
        35        -0.0464      0.0203     -0.0194      0.0029      0.0074
        36         0.0185     -0.0030     -0.0103      0.0005      0.0012
        37        -0.0081     -0.0110     -0.0147      0.0004      0.0010
        38        -0.0351      0.0680      0.0007      0.0059      0.0144
        39         0.0042      0.0180      0.0026      0.0003      0.0009
        40        -0.0948     -0.0406     -0.0242      0.0112      0.0273
        41         0.0619     -0.0505      0.0003      0.0064      0.0155
        42        -0.0771      0.0809      0.0151      0.0127      0.0305
        43         0.0865     -0.1389      0.0088      0.0269      0.0643
        44        -0.0527      0.0830      0.0220      0.0101      0.0243
        45         0.0208     -0.0394      0.0005      0.0020      0.0047
        46         0.0316     -0.0153      0.0190      0.0016      0.0038
        47        -0.0327      0.0209     -0.0028      0.0015      0.0036
        48        -0.0217      0.0039     -0.0055      0.0005      0.0012
        49         0.0294      0.0377     -0.0200      0.0027      0.0063
        50        -0.0217      0.0206     -0.0513      0.0035      0.0083
        51         0.0172      0.0234      0.0335      0.0020      0.0046
        52         0.0245      0.0228     -0.0397      0.0027      0.0063
        53         0.0041      0.0108     -0.0170      0.0004      0.0010
        54         0.0405     -0.0270      0.0124      0.0025      0.0058
        55        -0.1218      0.2160      0.0298      0.0624      0.1437
        56        -0.1772      0.0462     -0.0263      0.0342      0.0788
        57        -0.1516      0.0159     -0.0112      0.0233      0.0536
        58         0.0166      0.0143     -0.0094      0.0006      0.0013
        59        -0.0573      0.0311      0.0010      0.0043      0.0097
        60        -0.0771     -0.0065     -0.0211      0.0064      0.0146
        61        -0.0319      0.0011     -0.0613      0.0048      0.0108
        62        -0.0228     -0.0477      0.0419      0.0046      0.0103
        63        -0.1262      0.2429      0.0114      0.0750      0.1695
        64         0.0298     -0.0738      0.0107      0.0065      0.0146
        65        -0.0193     -0.0022      0.0031      0.0004      0.0009
        66        -0.0871      0.0853      0.0246      0.0155      0.0348
        67        -0.0161      0.0796     -0.0612      0.0103      0.0232
        68        -0.0249      0.0687      0.0544      0.0083      0.0186
        69        -0.0582     -0.0152     -0.0307      0.0046      0.0101
        70        -0.0210      0.0792     -0.0327      0.0078      0.0173
        71         0.0141     -0.0126     -0.0550      0.0034      0.0075
        72         0.0364      0.0302     -0.0202      0.0026      0.0059
        73         0.0577      0.0281     -0.0191      0.0045      0.0099
        74         0.0011      0.0101     -0.0223      0.0006      0.0013
        75        -0.0094     -0.1185      0.0135      0.0143      0.0315
        76        -0.0361     -0.0830     -0.0124      0.0083      0.0184
        77         0.0818      0.1445     -0.0065      0.0276      0.0606
        78         0.0236     -0.0589      0.0059      0.0041      0.0089
        79        -0.0133     -0.1993      0.0183      0.0402      0.0879
        80        -0.0350     -0.1399     -0.0041      0.0208      0.0454
        81        -0.1371      0.0411     -0.0208      0.0209      0.0455
        82        -0.0476      0.0393     -0.0117      0.0039      0.0086
        83        -0.1415     -0.0311     -0.0271      0.0217      0.0470
        84        -0.0514      0.0065      0.0078      0.0027      0.0059
        85         0.0903     -0.0014      0.0133      0.0083      0.0179
        86         0.0030      0.0175      0.0211      0.0008      0.0016
        87         0.0117      0.0270      0.0032      0.0009      0.0019
        88         0.0409      0.0270     -0.0163      0.0027      0.0057
        89        -0.0480     -0.0192     -0.0249      0.0033      0.0070
        90        -0.0204     -0.0034      0.0308      0.0014      0.0029
        91         0.0084      0.0322     -0.0271      0.0018      0.0039
        92         0.0045     -0.0349      0.0414      0.0029      0.0062
        93         0.0034      0.0269      0.0341      0.0019      0.0040
        94         0.0035     -0.0004      0.0038      0.0000      0.0001
        95        -0.0151      0.0045     -0.0346      0.0014      0.0030
        96        -0.0312     -0.0104     -0.0002      0.0011      0.0022
        97         0.0305      0.0322      0.0285      0.0028      0.0058
        98        -0.0009     -0.0024     -0.0208      0.0004      0.0009
        99         0.0068     -0.0043      0.0282      0.0009      0.0018
       100         0.0264     -0.1031     -0.0079      0.0114      0.0234
       101         0.1393     -0.0397      0.0384      0.0225      0.0459
       102        -0.0937      0.0673     -0.0002      0.0133      0.0272
       103        -0.0775      0.0032      0.0070      0.0061      0.0123
       104        -0.2773      0.0533      0.0180      0.0801      0.1627
       105        -0.1027      0.0108      0.0174      0.0110      0.0222
       106         0.0356     -0.1372     -0.0275      0.0209      0.0422
       107        -0.0207     -0.1109     -0.0494      0.0152      0.0306
       108        -0.0793      0.0830      0.0018      0.0132      0.0265
       109         0.0462     -0.0923      0.0057      0.0107      0.0214
       110        -0.0983      0.1137     -0.0102      0.0227      0.0456
       111         0.0257     -0.0501      0.0146      0.0034      0.0068
       112        -0.0427     -0.0194      0.0028      0.0022      0.0044
       113         0.0251      0.0917      0.0109      0.0092      0.0183
       114         0.0177     -0.0655      0.0087      0.0047      0.0093
       115        -0.0160      0.0254      0.0136      0.0011      0.0022
       116         0.0192     -0.0452      0.0183      0.0028      0.0055
       117        -0.0255     -0.0103     -0.0322      0.0018      0.0036
       118        -0.0177      0.0109     -0.0008      0.0004      0.0009
       119        -0.0132     -0.0134      0.0160      0.0006      0.0012
       120        -0.0294      0.0182      0.0277      0.0020      0.0039
       121         0.0332     -0.0381     -0.0102      0.0027      0.0052
       122         0.0617      0.0058     -0.0106      0.0039      0.0077
       123        -0.0157      0.0858     -0.0344      0.0088      0.0172
       124         0.0017     -0.0136     -0.0280      0.0010      0.0019
       125         0.0103     -0.0298      0.0009      0.0010      0.0019
       126         0.0644     -0.1467     -0.0166      0.0260      0.0507
       127        -0.0070     -0.1154     -0.0030      0.0134      0.0261
       128        -0.0396      0.0797     -0.0110      0.0080      0.0157
       129         0.0417      0.0051     -0.0461      0.0039      0.0076
       130        -0.0413      0.0034     -0.0891      0.0097      0.0187
       131         0.0004     -0.0074     -0.0043      0.0001      0.0001
       132         0.0629     -0.0276      0.0007      0.0047      0.0091
       133         0.0828      0.0845      0.0011      0.0140      0.0270
       134        -0.0025     -0.0207     -0.0730      0.0058      0.0111
       135         0.0086     -0.0386      0.0132      0.0017      0.0033
       136         0.0304     -0.0241      0.0233      0.0020      0.0039
       137         0.0487     -0.0138     -0.0082      0.0026      0.0050
       138        -0.0196      0.0325      0.0507      0.0040      0.0076
       139         0.0169     -0.0367      0.0267      0.0023      0.0045
       140        -0.0022      0.0155      0.0154      0.0005      0.0009
       141        -0.0676     -0.0568      0.0494      0.0102      0.0194
       142         0.0258     -0.0148     -0.0060      0.0009      0.0017
       143        -0.0175      0.0635     -0.0468      0.0065      0.0123
       144         0.0317      0.0088      0.0622      0.0050      0.0094
       145        -0.0159      0.0520      0.0466      0.0051      0.0097
       146         0.0013      0.0399      0.0212      0.0020      0.0038
       147         0.0159      0.0097      0.0240      0.0009      0.0017
       148        -0.0572     -0.0038      0.0286      0.0041      0.0077
       149         0.0052      0.0092      0.0212      0.0006      0.0011
       150        -0.0321     -0.0208     -0.0306      0.0024      0.0045
 Ground to excited state transition magnetic dipole moments (Au):
       state          X           Y           Z
         1         0.0545     -0.3222      1.3935
         2         0.0595      0.0095     -0.2485
         3         0.1126     -0.0656      0.2658
         4         0.1117     -0.1276      0.3996
         5        -0.1295     -0.1252      0.6410
         6         0.1956      0.3434      0.0257
         7         0.0211      0.1239     -1.1474
         8         0.0395     -0.2221     -1.4153
         9         0.0543     -0.1360     -1.9068
        10         0.0268      0.3594     -0.1269
        11         0.0027      0.1081     -0.4630
        12         0.0062     -0.0504     -1.0521
        13        -0.0569      0.4670     -0.4527
        14         0.0575      0.3072      0.5664
        15        -0.2216     -0.5329      1.8461
        16        -0.2176     -0.2239     -0.7833
        17        -0.0063      0.3361     -1.9774
        18         0.0255     -0.1654     -1.4980
        19        -0.2225      0.3443      1.0312
        20        -0.1062      0.0753      0.7478
        21        -0.1548     -0.0743     -0.3960
        22         0.0413     -0.0567     -0.9318
        23        -0.0295     -0.0882     -0.3675
        24        -0.1989      0.1779     -0.3195
        25         0.2138      0.0133      0.2480
        26         0.0115     -0.2551     -1.5966
        27         0.2675     -0.2881     -2.5355
        28        -0.0713      0.1402     -3.0544
        29        -0.1422     -0.0262     -0.7362
        30         0.0393      0.0103      0.6062
        31        -0.0363     -0.4265     -0.7869
        32        -0.0780     -0.2699      0.5054
        33         0.6871      0.1336      0.1332
        34        -0.1463     -0.0541      3.1262
        35        -0.0023     -0.1800     -0.4388
        36         0.3046     -0.2456      0.3051
        37        -0.0545     -0.1518      0.1720
        38         0.0064      0.0806      0.2671
        39         0.1516     -0.0041     -0.0631
        40         0.0010     -0.0531     -0.3143
        41         0.8199      0.4951     -0.3211
        42        -0.3972     -0.0734      0.2365
        43        -0.3940      0.1884     -0.2778
        44         0.0667     -0.0510      0.0193
        45        -0.0231     -0.1206      0.1242
        46         0.3449      0.0487     -0.0503
        47        -0.0157      0.0925      0.1790
        48         0.0074     -0.0076     -0.0386
        49        -0.4374     -0.1782     -0.1818
        50         0.0398      0.4455     -0.2710
        51        -0.2584      0.0163      0.0799
        52         0.2581     -0.3500      0.2906
        53         0.1204     -0.8322      0.0680
        54         0.2961      0.2097     -0.3813
        55        -0.0657     -0.1713      1.8697
        56        -0.1284     -0.1466     -0.0670
        57         0.0482     -0.2305     -0.8858
        58         0.1163     -0.0910     -0.3180
        59         0.1336     -0.1277      0.1825
        60        -0.0029     -0.1852     -1.4798
        61         0.0307      0.4390      0.0083
        62        -0.1471      0.3252     -0.2859
        63        -0.0242     -0.2324      0.4608
        64         0.2286      0.0869     -0.0194
        65         0.0403      0.1389     -0.1134
        66         0.0646      0.0899     -1.2536
        67        -0.0002     -0.6619     -0.5598
        68        -0.0075     -0.2459      0.4307
        69        -0.1868     -0.3639     -0.6539
        70        -0.0507      0.4286      0.3560
        71        -0.4304     -0.0679     -0.0528
        72         0.0837      0.2383      0.6986
        73        -0.1301     -0.1860      1.2380
        74         0.1643     -0.1159     -1.1062
        75         0.1264      0.1471      1.6544
        76         0.3239      0.2095      0.1206
        77        -0.1349     -0.2920     -0.2079
        78        -0.0553      0.0758      0.1991
        79        -0.0824      0.3307      0.9725
        80        -0.0578      0.2375     -1.1888
        81         0.0778     -0.1081     -2.6843
        82         0.0121     -0.1563      0.4735
        83        -0.1348      0.2387     -0.9818
        84         0.2816      0.0059     -0.4165
        85         0.0341     -0.3079     -0.0688
        86        -0.1879      0.6176      0.0234
        87        -0.2165      0.4490      0.4440
        88        -0.3039      0.1990     -0.3699
        89        -0.0751      0.1426     -0.1420
        90        -0.1480     -0.6629     -0.0511
        91        -0.2184     -0.0112     -0.1825
        92        -0.1030     -0.0835     -0.4780
        93        -0.2878      0.5606     -0.1955
        94        -0.2669      0.1801     -0.2438
        95         0.0875      0.0894      0.0878
        96         0.2252     -0.0881      0.2193
        97        -0.2153      0.1608     -0.1307
        98         0.4859      0.3681      0.2784
        99         0.4002      0.1488     -0.3465
       100        -0.1803     -0.0907      0.1097
       101         0.0363     -0.4298     -0.1488
       102        -0.2481     -0.5476      0.5279
       103        -0.0198     -0.3970     -0.7295
       104        -0.2724      0.1233      1.4724
       105        -0.2447      0.0517      0.4606
       106         0.0330      0.5682      1.1172
       107        -0.3673     -0.6336      1.2083
       108        -0.5462     -0.3505     -0.3149
       109        -0.0915     -0.4329     -0.3895
       110         0.1975      0.4230     -0.5347
       111        -0.0689      0.3081      0.4038
       112        -0.2437     -0.0936     -0.3763
       113        -0.3737     -0.6425     -0.1040
       114         0.1874     -0.2060      0.0488
       115         0.0020      0.0202     -0.2250
       116         0.2568      0.3188      0.2672
       117         0.0986      0.2195     -0.1269
       118         0.2973     -0.3225      0.0932
       119        -0.3087      0.1929      0.2661
       120        -0.1123      0.1317      0.2058
       121        -0.0648     -0.4949     -0.1276
       122        -0.0418      0.3102      0.1660
       123         0.1031      0.0936      0.2649
       124        -0.1937      0.3049      1.0537
       125         0.3758      0.2447      0.0133
       126         0.4394     -0.3806      0.3466
       127         0.0241      0.4455     -0.9160
       128         0.9783     -0.2455      0.3492
       129        -0.5654      0.1085      0.0466
       130         0.0021     -0.2888     -0.2341
       131         0.8301      0.7226     -0.0516
[...]
    33  H   -0.036157   0.005832  -0.003348   0.000000  -0.000000   0.000016
    34  H    0.427430  -0.037586   0.007035   0.000000  -0.000000  -0.000007
    35  H   -0.035120   0.419033  -0.035434   0.000000  -0.000000   0.000036
    36  H    0.001183  -0.008117   0.397398   0.000000  -0.000000   0.004511
    37  H    0.000000  -0.000000  -0.000000   0.411638  -0.041871   0.000001
    38  H   -0.000000   0.000000  -0.000000   0.415002  -0.040358   0.000000
    39  H    0.000000  -0.000000   0.000000  -0.052017   0.426110   0.000000
    40  H    0.000000  -0.000000  -0.000000  -0.031858   0.407699  -0.000000
    41  H   -0.000000   0.000000  -0.000000  -0.035168   0.412624   0.000000
    42  H    0.000012   0.000011   0.001410   0.000003  -0.000000   0.427738
    43  H   -0.000328   0.001813  -0.002265   0.000000  -0.000000   0.410130
    44  H   -0.000009   0.000016   0.000243   0.000000   0.000000  -0.047805
    45  H    0.000001  -0.000004   0.000162   0.000000  -0.000000  -0.054283
    46  H    0.000026   0.000525   0.000307  -0.000000   0.000000  -0.023107
              25         26         27         28         29         30
     1  C    0.002878   0.398245  -0.053640  -0.013217  -0.000032   0.000001
     2  C    0.000566  -0.003667   0.431737   0.004423   0.000015  -0.000000
     3  C   -0.014223  -0.006031  -0.072489   0.391557   0.000001   0.000000
     4  C    0.006811   0.004069   0.005615  -0.043527  -0.000000   0.000000
     5  C    0.000269  -0.041439   0.003454   0.004941   0.000260   0.000015
     6  S   -0.000050   0.000009  -0.000050  -0.005049   0.000000   0.000000
     7  C    0.001438   0.000007   0.000138   0.000750  -0.000000   0.000000
     8  C   -0.002109  -0.000002  -0.000500   0.000008   0.000000   0.000000
     9  N   -0.022857   0.000004  -0.000818   0.003096   0.000000   0.000000
    10  S   -0.001459   0.002524  -0.015561   0.000028  -0.003217  -0.000178
    11  C   -0.000062  -0.000401  -0.000564   0.000004  -0.044143   0.007361
    12  C    0.000007   0.001071   0.000355   0.000013   0.017837  -0.001249
    13  N    0.000006  -0.004559   0.000230  -0.000008  -0.000051   0.000023
    14  C   -0.000002  -0.000023  -0.000077   0.000000   0.421163  -0.042574
    15  C    0.000000   0.000004   0.000010   0.000000  -0.037233   0.427007
    16  C   -0.000000  -0.000008  -0.000004  -0.000000   0.006234  -0.037426
    17  C    0.000000   0.000158   0.000057   0.000000  -0.003975   0.007066
    18  C   -0.000018   0.000000   0.000008  -0.000021  -0.000000   0.000000
    19  C    0.000010  -0.000000  -0.000000  -0.000000   0.000000   0.000000
    20  C    0.000399   0.000000   0.000001   0.000001  -0.000000  -0.000000
    21  C   -0.008741  -0.000000   0.000098   0.000026  -0.000000   0.000000
    22  C    0.000000   0.004662   0.000325   0.000113   0.000010  -0.000005
    23  C    0.000000  -0.005449  -0.000095  -0.000019  -0.000002   0.000001
    24  C    0.182140   0.000020   0.000406   0.000901   0.000000   0.000000
    25  C    5.130542  -0.000001  -0.005275  -0.000310  -0.000001  -0.000000
    26  H   -0.000001   0.436588   0.004014   0.003400  -0.000001   0.000000
    27  H   -0.005275   0.004014   0.539233   0.004975  -0.000013   0.000000
    28  H   -0.000310   0.003400   0.004975   0.458456  -0.000000   0.000000
    29  H   -0.000001  -0.000001  -0.000013  -0.000000   0.452488  -0.003476
    30  H   -0.000000   0.000000   0.000000   0.000000  -0.003476   0.457710
    31  H    0.000000  -0.000000  -0.000000  -0.000000  -0.000145  -0.003577
    32  H    0.000000   0.000000   0.000000   0.000000   0.000018  -0.000128
    33  H   -0.000002   0.000000  -0.000000   0.000001   0.000000   0.000000
    34  H    0.000001  -0.000000  -0.000000  -0.000000   0.000000   0.000000
    35  H    0.000007   0.000000   0.000000   0.000000  -0.000000   0.000000
    36  H   -0.004225  -0.000000   0.000004   0.000001   0.000000   0.000000
    37  H   -0.000000  -0.002520   0.000063   0.000002  -0.000001  -0.000000
    38  H    0.000000   0.000452  -0.000001  -0.000000   0.000002  -0.000001
    39  H    0.000000   0.000145   0.000000   0.000001   0.000000  -0.000000
    40  H   -0.000000   0.000180   0.000005  -0.000000  -0.000001   0.000000
    41  H    0.000000  -0.000705  -0.000017   0.000019   0.000000  -0.000000
    42  H   -0.048578  -0.000087  -0.009980   0.000243   0.000000  -0.000000
    43  H   -0.040323   0.000002   0.001062  -0.000016  -0.000000  -0.000000
    44  H    0.419528   0.000007   0.002758  -0.000116   0.000000  -0.000000
    45  H    0.427342  -0.000001  -0.000913   0.000002   0.000001  -0.000000
    46  H    0.401908  -0.000000   0.000295   0.000014   0.000000   0.000000
              31         32         33         34         35         36
     1  C   -0.000002   0.000061   0.000000  -0.000000  -0.000000   0.000000
     2  C    0.000000   0.000005   0.000001   0.000000  -0.000000   0.000005
     3  C   -0.000000   0.000000  -0.000013   0.000000  -0.000000   0.000009
     4  C   -0.000000   0.000000   0.000201   0.000015   0.000022  -0.000544
     5  C    0.000027  -0.000610  -0.000000   0.000000   0.000000   0.000000
     6  S   -0.000000  -0.000000  -0.002563  -0.000161   0.000016  -0.000220
     7  C   -0.000000   0.000000  -0.042014   0.007404  -0.000126   0.002268
     8  C   -0.000000   0.000000   0.016109  -0.001321   0.007344  -0.026148
     9  N    0.000000  -0.000000  -0.000105   0.000030  -0.000135  -0.002764
    10  S    0.000015  -0.000101   0.000000   0.000000  -0.000000   0.000000
    11  C   -0.000421   0.003093  -0.000000   0.000000   0.000000   0.000000
    12  C    0.007793  -0.027193   0.000000   0.000000   0.000000   0.000000
    13  N   -0.000113  -0.001881   0.000000  -0.000000  -0.000000   0.000000
    14  C    0.005329   0.000269  -0.000000   0.000000   0.000000   0.000000
    15  C   -0.035752   0.001742   0.000000  -0.000000   0.000000  -0.000000
    16  C    0.420747  -0.010469  -0.000000   0.000000  -0.000000   0.000000
    17  C   -0.037039   0.400102   0.000000  -0.000000   0.000000  -0.000000
    18  C   -0.000000   0.000000   0.419538  -0.042640   0.004966   0.000703
    19  C    0.000000   0.000000  -0.036157   0.427430  -0.035120   0.001183
    20  C   -0.000000  -0.000000   0.005832  -0.037586   0.419033  -0.008117
    21  C    0.000000   0.000000  -0.003348   0.007035  -0.035434   0.397398
    22  C    0.000032   0.001820   0.000000   0.000000   0.000000   0.000000
    23  C    0.000003  -0.002157  -0.000000  -0.000000  -0.000000  -0.000000
    24  C    0.000000  -0.000000   0.000016  -0.000007   0.000036   0.004511
    25  C    0.000000   0.000000  -0.000002   0.000001   0.000007  -0.004225
    26  H   -0.000000   0.000000   0.000000  -0.000000   0.000000  -0.000000
    27  H   -0.000000   0.000000  -0.000000  -0.000000   0.000000   0.000004
    28  H   -0.000000   0.000000   0.000001  -0.000000   0.000000   0.000001
    29  H   -0.000145   0.000018   0.000000   0.000000  -0.000000   0.000000
    30  H   -0.003577  -0.000128   0.000000   0.000000   0.000000   0.000000
    31  H    0.456111  -0.003003  -0.000000  -0.000000  -0.000000   0.000000
    32  H   -0.003003   0.429142   0.000000   0.000000   0.000000   0.000000
    33  H   -0.000000   0.000000   0.450916  -0.003566  -0.000145   0.000023
    34  H   -0.000000   0.000000  -0.003566   0.457308  -0.003554  -0.000127
    35  H   -0.000000   0.000000  -0.000145  -0.003554   0.455407  -0.002875
    36  H    0.000000   0.000000   0.000023  -0.000127  -0.002875   0.425836
    37  H   -0.000000   0.000575  -0.000000  -0.000000   0.000000  -0.000000
    38  H   -0.000002  -0.004900   0.000000  -0.000000   0.000000  -0.000000
    39  H    0.000000   0.000125   0.000000  -0.000000   0.000000  -0.000000
    40  H    0.000007   0.000516   0.000000   0.000000   0.000000   0.000000
    41  H   -0.000000  -0.000041   0.000000  -0.000000   0.000000  -0.000000
    42  H   -0.000000  -0.000000  -0.000001  -0.000000  -0.000000   0.000558
    43  H    0.000000   0.000000   0.000002   0.000000  -0.000017  -0.004285
    44  H    0.000000   0.000000   0.000000  -0.000000  -0.000001   0.000047
    45  H    0.000000   0.000000   0.000000  -0.000000   0.000000   0.000166
    46  H   -0.000000  -0.000000  -0.000001  -0.000000   0.000017  -0.000205
              37         38         39         40         41         42
     1  C    0.016109  -0.000644   0.000043   0.000972   0.000861   0.001298
     2  C    0.002411   0.000112  -0.000025  -0.000010   0.001155  -0.015359
     3  C   -0.000207  -0.000000   0.000013  -0.000007   0.000008   0.023184
     4  C    0.000046  -0.000000   0.000000   0.000000   0.000010  -0.026332
     5  C   -0.036774   0.010829   0.000180  -0.002673   0.001306  -0.000417
     6  S    0.000000  -0.000000  -0.000000   0.000000  -0.000000   0.000133
     7  C    0.000000   0.000000   0.000000   0.000000   0.000000   0.000181
     8  C    0.000000  -0.000000   0.000000   0.000000  -0.000000   0.009255
     9  N    0.000000  -0.000000  -0.000000   0.000000  -0.000000  -0.031879
    10  S   -0.000118  -0.000380   0.000020  -0.000036  -0.000151   0.000923
    11  C   -0.000065  -0.001424  -0.000057   0.001424  -0.000212   0.000023
    12  C    0.010271  -0.020543  -0.000084   0.003221  -0.002455  -0.000005
    13  N   -0.020438  -0.018727   0.006608  -0.001927  -0.000273   0.000001
    14  C   -0.000043   0.000436  -0.000003  -0.000097   0.000040  -0.000000
    15  C    0.000016  -0.000386   0.000001   0.000036  -0.000010  -0.000000
    16  C   -0.000049   0.002903   0.000008  -0.000013   0.000044   0.000000
    17  C    0.001312  -0.001155   0.000268  -0.000702   0.000444  -0.000000
    18  C    0.000000   0.000000   0.000000   0.000000   0.000000  -0.000048
    19  C    0.000000  -0.000000   0.000000   0.000000  -0.000000   0.000012
    20  C   -0.000000   0.000000  -0.000000  -0.000000   0.000000   0.000011
    21  C   -0.000000  -0.000000   0.000000  -0.000000  -0.000000   0.001410
    22  C    0.411638   0.415002  -0.052017  -0.031858  -0.035168   0.000003
    23  C   -0.041871  -0.040358   0.426110   0.407699   0.412624  -0.000000
    24  C    0.000001   0.000000   0.000000  -0.000000   0.000000   0.427738
    25  C   -0.000000   0.000000   0.000000  -0.000000   0.000000  -0.048578
    26  H   -0.002520   0.000452   0.000145   0.000180  -0.000705  -0.000087
    27  H    0.000063  -0.000001   0.000000   0.000005  -0.000017  -0.009980
    28  H    0.000002  -0.000000   0.000001  -0.000000   0.000019   0.000243
    29  H   -0.000001   0.000002   0.000000  -0.000001   0.000000   0.000000
    30  H   -0.000000  -0.000001  -0.000000   0.000000  -0.000000  -0.000000
    31  H   -0.000000  -0.000002   0.000000   0.000007  -0.000000  -0.000000
    32  H    0.000575  -0.004900   0.000125   0.000516  -0.000041  -0.000000
    33  H   -0.000000   0.000000   0.000000   0.000000   0.000000  -0.000001
    34  H   -0.000000  -0.000000  -0.000000   0.000000  -0.000000  -0.000000
    35  H    0.000000   0.000000   0.000000   0.000000   0.000000  -0.000000
    36  H   -0.000000  -0.000000  -0.000000   0.000000  -0.000000   0.000558
    37  H    0.483075  -0.018413  -0.001403   0.005099  -0.004600  -0.000001
    38  H   -0.018413   0.483803  -0.001620  -0.004995   0.004959  -0.000000
    39  H   -0.001403  -0.001620   0.493456  -0.021729  -0.022165  -0.000000
    40  H    0.005099  -0.004995  -0.021729   0.502936  -0.025338   0.000000
    41  H   -0.004600   0.004959  -0.022165  -0.025338   0.500536  -0.000000
    42  H   -0.000001  -0.000000  -0.000000   0.000000  -0.000000   0.466239
    43  H   -0.000000  -0.000000  -0.000000  -0.000000   0.000000  -0.009335
    44  H   -0.000000   0.000000  -0.000000  -0.000000   0.000000  -0.002250
    45  H   -0.000000  -0.000000  -0.000000   0.000000   0.000000  -0.001680
    46  H   -0.000000   0.000000  -0.000000  -0.000000   0.000000   0.004175
              43         44         45         46
     1  C    0.000007   0.002137  -0.000336  -0.000003
     2  C    0.001991   0.001060   0.001062  -0.000823
     3  C   -0.002257  -0.008042   0.000115   0.001449
     4  C    0.009455   0.005273  -0.000072  -0.002129
     5  C    0.000005  -0.000128   0.000132  -0.000015
     6  S   -0.000305  -0.000146   0.000022  -0.000021
     7  C   -0.001033  -0.000154  -0.000005   0.001045
     8  C   -0.014198  -0.001905   0.000225   0.001297
     9  N   -0.020378   0.001496   0.006165  -0.002302
    10  S   -0.000002   0.000438   0.000260   0.000039
    11  C   -0.000000  -0.000025   0.000000   0.000001
    12  C    0.000000   0.000004   0.000000  -0.000000
    13  N    0.000000   0.000004   0.000000  -0.000000
    14  C   -0.000000  -0.000002   0.000002   0.000000
    15  C    0.000000  -0.000000  -0.000000  -0.000000
    16  C   -0.000000   0.000000   0.000000   0.000000
    17  C    0.000000  -0.000000  -0.000000  -0.000000
    18  C    0.000384   0.000046  -0.000003  -0.000101
    19  C   -0.000328  -0.000009   0.000001   0.000026
    20  C    0.001813   0.000016  -0.000004   0.000525
    21  C   -0.002265   0.000243   0.000162   0.000307
    22  C    0.000000   0.000000   0.000000  -0.000000
    23  C   -0.000000   0.000000  -0.000000   0.000000
    24  C    0.410130  -0.047805  -0.054283  -0.023107
    25  C   -0.040323   0.419528   0.427342   0.401908
    26  H    0.000002   0.000007  -0.000001  -0.000000
    27  H    0.001062   0.002758  -0.000913   0.000295
    28  H   -0.000016  -0.000116   0.000002   0.000014
    29  H   -0.000000   0.000000   0.000001   0.000000
    30  H   -0.000000  -0.000000  -0.000000   0.000000
    31  H    0.000000   0.000000   0.000000  -0.000000
    32  H    0.000000   0.000000   0.000000  -0.000000
    33  H    0.000002   0.000000   0.000000  -0.000001
    34  H    0.000000  -0.000000  -0.000000  -0.000000
    35  H   -0.000017  -0.000001   0.000000   0.000017
    36  H   -0.004285   0.000047   0.000166  -0.000205
    37  H   -0.000000  -0.000000  -0.000000  -0.000000
    38  H   -0.000000   0.000000  -0.000000   0.000000
    39  H   -0.000000  -0.000000  -0.000000  -0.000000
    40  H   -0.000000  -0.000000   0.000000  -0.000000
    41  H    0.000000   0.000000   0.000000   0.000000
    42  H   -0.009335  -0.002250  -0.001680   0.004175
    43  H    0.466273   0.004122  -0.000192  -0.004964
    44  H    0.004122   0.497489  -0.022901  -0.023442
    45  H   -0.000192  -0.022901   0.484306  -0.018382
    46  H   -0.004964  -0.023442  -0.018382   0.489124
 Mulliken charges:
               1
     1  C   -0.281186
     2  C   -0.108814
     3  C   -0.284933
     4  C    0.164409
     5  C    0.181760
     6  S    0.096394
     7  C   -0.008956
     8  C    0.170570
     9  N   -0.028989
    10  S    0.058830
    11  C   -0.000411
    12  C    0.158939
    13  N   -0.032530
    14  C   -0.210015
    15  C   -0.180224
    16  C   -0.174240
    17  C   -0.243738
    18  C   -0.204518
    19  C   -0.176123
    20  C   -0.176020
    21  C   -0.248087
    22  C   -0.283266
    23  C   -0.418902
    24  C   -0.328237
    25  C   -0.425613
    26  H    0.209333
    27  H    0.165154
    28  H    0.189309
    29  H    0.194260
    30  H    0.189430
    31  H    0.189986
    32  H    0.213015
    33  H    0.195274
    34  H    0.189740
    35  H    0.190561
    36  H    0.216799
    37  H    0.195885
    38  H    0.195049
    39  H    0.172123
    40  H    0.167290
    41  H    0.169130
    42  H    0.210566
    43  H    0.204652
    44  H    0.172260
    45  H    0.178809
    46  H    0.175275
 Sum of Mulliken charges =   1.00000
 Mulliken charges with hydrogens summed into heavy atoms:
               1
     1  C   -0.071853
     2  C    0.056340
     3  C   -0.095624
     4  C    0.164409
     5  C    0.181760
     6  S    0.096394
     7  C   -0.008956
     8  C    0.170570
     9  N   -0.028989
    10  S    0.058830
    11  C   -0.000411
    12  C    0.158939
    13  N   -0.032530
    14  C   -0.015755
    15  C    0.009206
    16  C    0.015746
    17  C   -0.030723
    18  C   -0.009244
    19  C    0.013617
    20  C    0.014541
    21  C   -0.031288
    22  C    0.107669
    23  C    0.089642
    24  C    0.086982
    25  C    0.100731
 Electronic spatial extent (au):  <R**2>=          15558.5874
 Charge=              1.0000 electrons
 Dipole moment (field-independent basis, Debye):
    X=              1.1078    Y=              0.2052    Z=              1.2339  Tot=              1.6708
 Quadrupole moment (field-independent basis, Debye-Ang):
   XX=            -50.4471   YY=           -124.2107   ZZ=           -166.8538
   XY=             15.4162   XZ=              1.6797   YZ=              0.8982
 Traceless Quadrupole moment (field-independent basis, Debye-Ang):
   XX=             63.3901   YY=            -10.3735   ZZ=            -53.0166
   XY=             15.4162   XZ=              1.6797   YZ=              0.8982
 Octapole moment (field-independent basis, Debye-Ang**2):
  XXX=              6.1430  YYY=             -1.6004  ZZZ=              3.8626  XYY=             28.2725
  XXY=             -0.9994  XXZ=             -7.4965  XZZ=              2.0571  YZZ=              3.3938
  YYZ=              4.6094  XYZ=             30.2873
 Hexadecapole moment (field-independent basis, Debye-Ang**3):
 XXXX=         -13448.2927 YYYY=          -2303.8896 ZZZZ=           -330.1300 XXXY=            102.1072
 XXXZ=            163.7578 YYYX=             86.4431 YYYZ=             17.2302 ZZZX=             -0.0701
 ZZZY=             -3.2620 XXYY=          -2833.3882 XXZZ=          -3428.4077 YYZZ=           -498.0757
 XXYZ=             22.0401 YYXZ=            -12.7456 ZZXY=             36.3316
 N-N= 2.285648745017D+03 E-N=-8.580141351126D+03  KE= 1.712551092115D+03
 Unable to Open any file for archive entry.
 1\1\GINC-CN12\SP\RM062X TD-FC\def2TZVP\C21H21N2S2(1+)\2100011873\05-No
 v-2023\0\\# td=(nstates=150) M062X/def2TZVP scrf(smd, solvent=ethanol)
 \\A-2\\1,1\C,0,1.185932,1.124188,0.259065\C,0,-0.064042,0.518894,0.184
 736\C,0,-1.255062,1.232433,0.206071\C,0,-2.576908,0.775971,0.134368\C,
 0,2.392634,0.431471,0.171283\S,0,-3.827667,1.970009,-0.187075\C,0,-5.0
 77877,0.744792,-0.134775\C,0,-4.509195,-0.50864,0.113846\N,0,-3.118372
 ,-0.458179,0.279721\S,0,2.505198,-1.300121,-0.125106\C,0,4.260315,-1.2
 25762,-0.102553\C,0,4.688784,0.08701,0.119416\N,0,3.627512,0.981655,0.
 287411\C,0,5.159317,-2.267461,-0.279503\C,0,6.517913,-1.973596,-0.2372
 57\C,0,6.95394,-0.663841,-0.025333\C,0,6.051566,0.378213,0.153458\C,0,
 -6.446804,0.904176,-0.304215\C,0,-7.251229,-0.226106,-0.226408\C,0,-6.
 689747,-1.482485,0.014868\C,0,-5.320051,-1.640504,0.18625\C,0,3.847144
 ,2.415669,0.55458\C,0,3.911762,3.249637,-0.717632\C,0,-2.369369,-1.660
 308,0.692423\C,0,-1.918854,-2.522991,-0.47911\H,0,1.228852,2.199196,0.
 376562\H,0,-0.096636,-0.556945,0.072235\H,0,-1.165193,2.31437,0.224199
 \H,0,4.813961,-3.279951,-0.448352\H,0,7.240415,-2.768718,-0.37396\H,0,
 8.015538,-0.449707,-0.002068\H,0,6.406822,1.388085,0.306065\H,0,-6.875
 736,1.880738,-0.491225\H,0,-8.32188,-0.129159,-0.357431\H,0,-7.330326,
 -2.354283,0.06736\H,0,-4.901973,-2.621689,0.363736\H,0,3.048585,2.7542
 96,1.212168\H,0,4.77271,2.494849,1.122044\H,0,4.082538,4.295496,-0.452
 515\H,0,4.728911,2.924468,-1.364544\H,0,2.978199,3.187215,-1.279982\H,
 0,-1.531667,-1.329317,1.302601\H,0,-3.027666,-2.224702,1.351768\H,0,-1
 .2761,-1.972556,-1.168349\H,0,-1.359149,-3.379171,-0.096017\H,0,-2.775
 672,-2.899604,-1.040801\\Version=ES64L-G16RevC.02\State=1-A\HF=-1718.5
 849442\RMSD=8.701e-09\PG=C01 [X(C21H21N2S2)]\\@
 The archive entry for this job was punched.


 ALL SCIENCE IS EITHER PHYSICS, OR STAMP COLLECTING.
   --ERNEST RUTHERFORD, 1871-1937.
 Job cpu time:       4 days 17 hours  9 minutes 15.0 seconds.
 Elapsed time:       0 days  3 hours 16 minutes 36.0 seconds.
 File lengths (MBytes):  RWF=  33264 Int=      0 D2E=      0 Chk=   3408 Scr=     32
 Normal termination of Gaussian 16 at Sun Nov  5 01:23:05 2023.
