 Entering Gaussian System, Link 0=g16
 Initial command:
 /nfs-share/home/2100011873/Gaussian16_AVX2/g16/l1.exe "/nfs-share/home/2100011873/GaussTmp/Gau-58317.inp" -scrdir="/nfs-share/home/2100011873/GaussTmp/"
 Entering Link 1 = /nfs-share/home/2100011873/Gaussian16_AVX2/g16/l1.exe PID=     58318.
  
 Copyright (c) 1988-2021, Gaussian, Inc.  All Rights Reserved.
  
 This is part of the Gaussian(R) 16 program.  It is based on
 the Gaussian(R) 09 system (copyright 2009, Gaussian, Inc.),
 the Gaussian(R) 03 system (copyright 2003, Gaussian, Inc.),
 the Gaussian(R) 98 system (copyright 1998, Gaussian, Inc.),
 the Gaussian(R) 94 system (copyright 1995, Gaussian, Inc.),
 the Gaussian 92(TM) system (copyright 1992, Gaussian, Inc.),
 the Gaussian 90(TM) system (copyright 1990, Gaussian, Inc.),
 the Gaussian 88(TM) system (copyright 1988, Gaussian, Inc.),
 the Gaussian 86(TM) system (copyright 1986, Carnegie Mellon
 University), and the Gaussian 82(TM) system (copyright 1983,
 Carnegie Mellon University). Gaussian is a federally registered
 trademark of Gaussian, Inc.
  
 This software contains proprietary and confidential information,
 including trade secrets, belonging to Gaussian, Inc.
  
 This software is provided under written license and may be
 used, copied, transmitted, or stored only in accord with that
 written license.
  
 The following legend is applicable only to US Government
 contracts under FAR:
  
                    RESTRICTED RIGHTS LEGEND
  
 Use, reproduction and disclosure by the US Government is
 subject to restrictions as set forth in subparagraphs (a)
 and (c) of the Commercial Computer Software - Restricted
 Rights clause in FAR 52.227-19.
  
 Gaussian, Inc.
 340 Quinnipiac St., Bldg. 40, Wallingford CT 06492
  
  
 ---------------------------------------------------------------
 Warning -- This program may not be used in any manner that
 competes with the business of Gaussian, Inc. or will provide
 assistance to any competitor of Gaussian, Inc.  The licensee
 of this program is prohibited from giving any competitor of
 Gaussian, Inc. access to this program.  By using this program,
 the user acknowledges that Gaussian, Inc. is engaged in the
 business of creating and licensing software in the field of
 computational chemistry and represents and warrants to the
 licensee that it is not a competitor of Gaussian, Inc. and that
 it will not use this program in any manner prohibited above.
 ---------------------------------------------------------------
  

 Cite this work as:
 Gaussian 16, Revision C.02,
 M. J. Frisch, G. W. Trucks, H. B. Schlegel, G. E. Scuseria, 
 M. A. Robb, J. R. Cheeseman, G. Scalmani, V. Barone, 
 G. A. Petersson, H. Nakatsuji, X. Li, M. Caricato, A. V. Marenich, 
 J. Bloino, B. G. Janesko, R. Gomperts, B. Mennucci, H. P. Hratchian, 
 J. V. Ortiz, A. F. Izmaylov, J. L. Sonnenberg, D. Williams-Young, 
 F. Ding, F. Lipparini, F. Egidi, J. Goings, B. Peng, A. Petrone, 
 T. Henderson, D. Ranasinghe, V. G. Zakrzewski, J. Gao, N. Rega, 
 G. Zheng, W. Liang, M. Hada, M. Ehara, K. Toyota, R. Fukuda, 
 J. Hasegawa, M. Ishida, T. Nakajima, Y. Honda, O. Kitao, H. Nakai, 
 T. Vreven, K. Throssell, J. A. Montgomery, Jr., J. E. Peralta, 
 F. Ogliaro, M. J. Bearpark, J. J. Heyd, E. N. Brothers, K. N. Kudin, 
 V. N. Staroverov, T. A. Keith, R. Kobayashi, J. Normand, 
 K. Raghavachari, A. P. Rendell, J. C. Burant, S. S. Iyengar, 
 J. Tomasi, M. Cossi, J. M. Millam, M. Klene, C. Adamo, R. Cammi, 
 J. W. Ochterski, R. L. Martin, K. Morokuma, O. Farkas, 
 J. B. Foresman, and D. J. Fox, Gaussian, Inc., Wallingford CT, 2019.
 
 ******************************************
 Gaussian 16:  ES64L-G16RevC.02  7-Dec-2021
                 4-Nov-2023 
 ******************************************
 %nprocshared=32
 Will use up to   32 processors via shared memory.
 %mem=128GB
 -----------------------------------------------------------
 # td=(nstates=50) M062X/def2TZVP scrf(smd, solvent=ethanol)
 -----------------------------------------------------------
 1/38=1,172=1/1;
 2/12=2,17=6,18=5,40=1/2;
 3/5=44,7=101,11=9,25=1,30=1,70=32201,72=4,74=-55/1,2,3,8;
 4//1;
 5/5=2,38=5,53=4/2;
 8/6=1,10=1,108=50/1;
 9/41=50,42=1,70=2/14;
 6/7=2,8=2,9=2,10=2/1;
 99/5=1,9=1/99;
 ---
 B-2
 ---
 Symbolic Z-matrix:
 Charge =  0 Multiplicity = 1
 C                     4.18604  -0.98524  -0.00011 
 C                     2.96568  -0.09996   0.00002 
 C                     1.72426  -0.63647  -0.00021 
 C                     0.45258   0.05967  -0.00018 
 C                    -0.74108  -0.57941  -0.00021 
 C                    -2.06437   0.04042  -0.00014 
 C                    -3.15288  -0.76323   0.00025 
 C                    -4.60417  -0.38585   0.00043 
 C                     3.26039   1.37827   0.00057 
 C                    -2.13318   1.55026  -0.00054 
 H                     4.81718  -0.79122  -0.87967 
 H                     4.8171   -0.79165   0.8796 
 H                     3.9221   -2.04745  -0.00037 
 H                     1.65238  -1.72528  -0.00049 
 H                     0.46913   1.14647  -0.00011 
 H                    -0.73542  -1.67054  -0.0003 
 H                    -2.96813  -1.83864   0.00044 
 H                    -4.77347   0.69375   0.00148 
 H                    -5.11489  -0.80271  -0.87923 
 H                    -5.11504  -0.80447   0.87914 
 H                     2.363     2.00076   0.00008 
 H                     3.85901   1.65372   0.88055 
 H                     3.86032   1.65418  -0.87836 
 H                    -1.62727   1.96404  -0.8821 
 H                    -3.15869   1.92368  -0.00045 
 H                    -1.62693   1.9646    0.88057 
 
                          Input orientation:                          
 ---------------------------------------------------------------------
 Center     Atomic      Atomic             Coordinates (Angstroms)
 Number     Number       Type             X           Y           Z
 ---------------------------------------------------------------------
      1          6           0        4.186043   -0.985243   -0.000113
      2          6           0        2.965678   -0.099955    0.000017
      3          6           0        1.724259   -0.636470   -0.000213
      4          6           0        0.452578    0.059668   -0.000179
      5          6           0       -0.741079   -0.579413   -0.000205
      6          6           0       -2.064372    0.040415   -0.000137
      7          6           0       -3.152878   -0.763225    0.000253
      8          6           0       -4.604173   -0.385851    0.000427
      9          6           0        3.260391    1.378273    0.000567
     10          6           0       -2.133175    1.550261   -0.000541
     11          1           0        4.817179   -0.791217   -0.879673
     12          1           0        4.817098   -0.791647    0.879598
     13          1           0        3.922096   -2.047445   -0.000374
     14          1           0        1.652379   -1.725280   -0.000493
     15          1           0        0.469127    1.146468   -0.000113
     16          1           0       -0.735417   -1.670538   -0.000304
     17          1           0       -2.968126   -1.838635    0.000440
     18          1           0       -4.773466    0.693748    0.001475
     19          1           0       -5.114894   -0.802710   -0.879231
     20          1           0       -5.115042   -0.804470    0.879137
     21          1           0        2.363003    2.000757    0.000075
     22          1           0        3.859006    1.653716    0.880554
     23          1           0        3.860320    1.654180   -0.878355
     24          1           0       -1.627265    1.964044   -0.882102
     25          1           0       -3.158688    1.923675   -0.000452
     26          1           0       -1.626926    1.964596    0.880567
 ---------------------------------------------------------------------
                    Distance matrix (angstroms):
                    1          2          3          4          5
     1  C    0.000000
     2  C    1.507656   0.000000
     3  C    2.486367   1.352394   0.000000
     4  C    3.876932   2.518164   1.449752   0.000000
     5  C    4.943807   3.737637   2.465998   1.353973   0.000000
     6  C    6.334008   5.032008   3.848623   2.517024   1.461264
     7  C    7.342278   6.154401   4.878784   3.698171   2.418793
     8  C    8.810628   7.575248   6.333393   5.076339   3.867940
     9  C    2.538314   1.507320   2.533553   3.102021   4.454694
    10  C    6.808913   5.359246   4.434139   2.984625   2.544296
    11  H    1.099820   2.163274   3.219247   4.532908   5.631390
    12  H    1.099819   2.163298   3.219286   4.532966   5.631379
    13  H    1.094505   2.169667   2.611769   4.059246   4.888795
    14  H    2.639528   2.089602   1.091180   2.150712   2.653611
    15  H    4.284817   2.790401   2.180418   1.086926   2.107905
    16  H    4.968943   4.020552   2.668202   2.098796   1.091140
    17  H    7.204888   6.183287   4.843932   3.912131   2.558394
    18  H    9.115471   7.779738   6.632489   5.264370   4.228603
    19  H    9.344174   8.158590   6.897414   5.702032   4.466856
    20  H    9.344300   8.158874   6.897646   5.702484   4.467152
    21  H    3.498524   2.185454   2.713478   2.723518   4.036410
    22  H    2.801184   2.156094   3.252360   3.862697   5.188775
    23  H    2.800707   2.156133   3.252840   3.863466   5.189697
    24  H    6.578050   5.112079   4.332795   2.954688   2.834121
    25  H    7.899802   6.450034   5.513394   4.063959   3.479983
    26  H    6.577823   5.111727   4.332639   2.954454   2.834161
                    6          7          8          9         10
     6  C    0.000000
     7  C    1.353027   0.000000
     8  C    2.575324   1.499556   0.000000
     9  C    5.490261   6.761363   8.059994   0.000000
    10  C    1.511413   2.528243   3.139166   5.396308   0.000000
    11  H    6.987198   8.018532   9.471049   2.811601   7.386665
    12  H    6.987195   8.018390   9.470901   2.811509   7.386845
    13  H    6.340107   7.190583   8.686666   3.489040   7.043422
    14  H    4.114841   4.900617   6.398321   3.495389   5.005955
    15  H    2.764411   4.094612   5.299658   2.800873   2.633444
    16  H    2.166444   2.582118   4.076481   5.026105   3.511022
    17  H    2.085090   1.091165   2.187974   7.010201   3.490238
    18  H    2.786761   2.179238   1.092792   8.062967   2.775744
    19  H    3.284715   2.150479   1.099275   8.699203   3.898617
    20  H    3.285352   2.150401   1.099254   8.699663   3.900016
    21  H    4.841961   6.169647   7.364607   1.092150   4.518690
    22  H    6.201997   7.468805   8.749849   1.099357   6.057497
    23  H    6.203022   7.469990   8.751093   1.099338   6.058328
    24  H    2.160850   3.247159   3.893950   5.001141   1.097411
    25  H    2.178117   2.686906   2.724580   6.442208   1.091382
    26  H    2.160896   3.247228   3.894001   5.000404   1.097412
                   11         12         13         14         15
    11  H    0.000000
    12  H    1.759271   0.000000
    13  H    1.775514   1.775502   0.000000
    14  H    3.414878   3.414920   2.292467   0.000000
    15  H    4.840848   4.840974   4.703624   3.105966   0.000000
    16  H    5.690151   5.690088   4.672739   2.388423   3.063731
    17  H    7.904597   7.904354   6.893385   4.621895   4.552532
    18  H    9.744846   9.744558   9.117398   6.866089   5.262104
    19  H    9.932080  10.086529   9.164548   6.886167   5.979418
    20  H   10.086754   9.932148   9.164518   6.886191   5.980149
    21  H    3.819955   3.820165   4.338054   3.793196   2.077637
    22  H    3.161359   2.626355   3.805077   4.130746   3.538948
    23  H    2.625937   3.160363   3.804825   4.131149   3.539671
    24  H    7.008732   7.226841   6.903977   5.014420   2.416856
    25  H    8.471017   8.471164   8.118331   6.038314   3.710134
    26  H    7.226302   7.008732   6.903925   5.014508   2.416272
                   16         17         18         19         20
    16  H    0.000000
    17  H    2.239028   0.000000
    18  H    4.679283   3.110019   0.000000
    19  H    4.550325   2.540782   1.769633   0.000000
    20  H    4.550231   2.539853   1.769639   1.758369   0.000000
    21  H    4.804021   6.569769   7.255168   8.034398   8.035123
    22  H    5.738928   7.718863   8.730057   9.468989   9.304634
    23  H    5.739819   7.720085   8.731483   9.305416   9.470526
    24  H    3.844886   4.127609   3.506129   4.451796   4.788655
    25  H    4.334814   3.767133   2.029835   3.468742   3.470414
    26  H    3.845117   4.127712   3.505506   4.787566   4.453614
                   21         22         23         24         25
    21  H    0.000000
    22  H    1.770228   0.000000
    23  H    1.770230   1.758910   0.000000
    24  H    4.086786   5.770826   5.496328   0.000000
    25  H    5.522229   7.077929   7.078829   1.767539   0.000000
    26  H    4.086087   5.494734   5.770618   1.762669   1.767530
                   26
    26  H    0.000000
 Stoichiometry    C10H16
 Framework group  C1[X(C10H16)]
 Deg. of freedom    72
 Full point group                 C1      NOp   1
 Largest Abelian subgroup         C1      NOp   1
 Largest concise Abelian subgroup C1      NOp   1
                         Standard orientation:                         
 ---------------------------------------------------------------------
 Center     Atomic      Atomic             Coordinates (Angstroms)
 Number     Number       Type             X           Y           Z
 ---------------------------------------------------------------------
      1          6           0        4.186043   -0.985243   -0.000113
      2          6           0        2.965678   -0.099955    0.000017
      3          6           0        1.724259   -0.636470   -0.000213
      4          6           0        0.452578    0.059668   -0.000179
      5          6           0       -0.741079   -0.579413   -0.000205
      6          6           0       -2.064372    0.040415   -0.000137
      7          6           0       -3.152878   -0.763225    0.000253
      8          6           0       -4.604173   -0.385851    0.000427
      9          6           0        3.260391    1.378273    0.000567
     10          6           0       -2.133175    1.550261   -0.000541
     11          1           0        4.817179   -0.791217   -0.879673
     12          1           0        4.817098   -0.791647    0.879598
     13          1           0        3.922096   -2.047445   -0.000374
     14          1           0        1.652379   -1.725280   -0.000493
     15          1           0        0.469127    1.146468   -0.000113
     16          1           0       -0.735417   -1.670538   -0.000304
     17          1           0       -2.968126   -1.838635    0.000440
     18          1           0       -4.773466    0.693748    0.001475
     19          1           0       -5.114894   -0.802710   -0.879231
     20          1           0       -5.115042   -0.804470    0.879137
     21          1           0        2.363003    2.000757    0.000075
     22          1           0        3.859006    1.653716    0.880554
     23          1           0        3.860320    1.654180   -0.878355
     24          1           0       -1.627265    1.964044   -0.882102
     25          1           0       -3.158688    1.923675   -0.000452
     26          1           0       -1.626926    1.964596    0.880567
 ---------------------------------------------------------------------
 Rotational constants (GHZ):           4.0045797           0.4300443           0.3921027
 Standard basis: def2TZVP (5D, 7F)
 There are   456 symmetry adapted cartesian basis functions of A   symmetry.
 There are   406 symmetry adapted basis functions of A   symmetry.
   406 basis functions,   638 primitive gaussians,   456 cartesian basis functions
    38 alpha electrons       38 beta electrons
       nuclear repulsion energy       478.6004483981 Hartrees.
 NAtoms=   26 NActive=   26 NUniq=   26 SFac= 1.00D+00 NAtFMM=   60 NAOKFM=F Big=F
 Integral buffers will be    131072 words long.
 Regular integral format.
 Two-electron integral symmetry is turned on.
 ------------------------------------------------------------------------------
 Polarizable Continuum Model (PCM)
 =================================
 Model                : PCM.
 Atomic radii         : SMD-Coulomb.
 Polarization charges : Total charges.
 Charge compensation  : None.
 Solution method      : On-the-fly selection.
 Cavity type          : VdW (van der Waals Surface) (Alpha=1.000).
 Cavity algorithm     : GePol (No added spheres)
                        Default sphere list used, NSphG=   26.
                        Lebedev-Laikov grids with approx.  5.0 points / Ang**2.
                        Smoothing algorithm: York/Karplus (Gamma=1.0000).
                        Polarization charges: spherical gaussians, with
                                              point-specific exponents (IZeta= 3).
                        Self-potential: point-specific (ISelfS= 7).
                        Self-field    : sphere-specific E.n sum rule (ISelfD= 2).
 Solvent              : Ethanol, Eps=  24.852000 Eps(inf)=   1.852593
 ------------------------------------------------------------------------------
 ------------------------------------------------------------------------------
 Atomic radii for non-electrostatic terms: SMD-CDS.
 ------------------------------------------------------------------------------
 Nuclear repulsion after PCM non-electrostatic terms =      478.5987318692 Hartrees.
 One-electron integrals computed using PRISM.
   1 Symmetry operations used in ECPInt.
 ECPInt:  NShTT=   15225 NPrTT=   44224 LenC2=   13758 LenP2D=   30430.
 LDataN:  DoStor=T MaxTD1= 6 Len=  172
 NBasis=   406 RedAO= T EigKep=  3.93D-05  NBF=   406
 NBsUse=   406 1.00D-06 EigRej= -1.00D+00 NBFU=   406
 ExpMin= 9.52D-02 ExpMax= 1.36D+04 ExpMxC= 4.63D+02 IAcc=3 IRadAn=         5 AccDes= 0.00D+00
 Harris functional with IExCor= 1009 and IRadAn=       5 diagonalized for initial guess.
 HarFok:  IExCor= 1009 AccDes= 0.00D+00 IRadAn=         5 IDoV= 1 UseB2=F ITyADJ=14
 ICtDFT=  3500011 ScaDFX=  1.000000  1.000000  1.000000  1.000000
 FoFCou: FMM=F IPFlag=           0 FMFlag=      100000 FMFlg1=           0
         NFxFlg=           0 DoJE=T BraDBF=F KetDBF=T FulRan=T
         wScrn=  0.000000 ICntrl=       500 IOpCl=  0 I1Cent=   200000004 NGrid=           0
         NMat0=    1 NMatS0=      1 NMatT0=    0 NMatD0=    1 NMtDS0=    0 NMtDT0=    0
 Petite list used in FoFCou.
 Requested convergence on RMS density matrix=1.00D-08 within 128 cycles.
 Requested convergence on MAX density matrix=1.00D-06.
 Requested convergence on             energy=1.00D-06.
 No special actions if energy rises.
 Inv3:  Mode=1 IEnd=    11116875.
 Iteration    1 A*A^-1 deviation from unit magnitude is 3.55D-15 for    460.
 Iteration    1 A*A^-1 deviation from orthogonality  is 2.41D-15 for   1524     52.
 Iteration    1 A^-1*A deviation from unit magnitude is 3.33D-15 for    460.
 Iteration    1 A^-1*A deviation from orthogonality  is 1.63D-15 for   1170     99.
 Error on total polarization charges =  0.06122
 SCF Done:  E(RM062X) =  -390.618569060     A.U. after   12 cycles
            NFock= 12  Conv=0.47D-08     -V/T= 2.0060
 SMD-CDS (non-electrostatic) energy       (kcal/mol) =      -1.08
 (included in total energy above)
 DoSCS=F DFT=T ScalE2(SS,OS)=  1.000000  1.000000
 ExpMin= 9.52D-02 ExpMax= 1.36D+04 ExpMxC= 4.63D+02 IAcc=3 IRadAn=         5 AccDes= 0.00D+00
 HarFok:  IExCor=  205 AccDes= 0.00D+00 IRadAn=         5 IDoV=-2 UseB2=F ITyADJ=14
 ICtDFT= 12500011 ScaDFX=  1.000000  1.000000  1.000000  1.000000
 Range of M.O.s used for correlation:    11   406
 NBasis=   406 NAE=    38 NBE=    38 NFC=    10 NFV=     0
 NROrb=    396 NOA=    28 NOB=    28 NVA=   368 NVB=   368

 **** Warning!!: The largest alpha MO coefficient is  0.40074750D+02

 NEqPCM:  Using non-equilibrium solvation (IEInf=1, Eps=  24.8520, EpsInf=   1.8526)
 Inv3:  Mode=1 IEnd=    11116875.
 Iteration    1 A*A^-1 deviation from unit magnitude is 3.89D-15 for    120.
 Iteration    1 A*A^-1 deviation from orthogonality  is 2.28D-15 for   1342    412.
 Iteration    1 A^-1*A deviation from unit magnitude is 3.44D-15 for    120.
 Iteration    1 A^-1*A deviation from orthogonality  is 1.68D-15 for   1848    506.
 Orbital symmetries:
       Occupied  (A) (A) (A) (A) (A) (A) (A) (A) (A) (A) (A) (A)
                 (A) (A) (A) (A) (A) (A) (A) (A) (A) (A) (A) (A)
                 (A) (A) (A) (A) (A) (A) (A) (A) (A) (A) (A) (A)
                 (A) (A)
       Virtual   (A) (A) (A) (A) (A) (A) (A) (A) (A) (A) (A) (A)
                 (A) (A) (A) (A) (A) (A) (A) (A) (A) (A) (A) (A)
                 (A) (A) (A) (A) (A) (A) (A) (A) (A) (A) (A) (A)
                 (A) (A) (A) (A) (A) (A) (A) (A) (A) (A) (A) (A)
                 (A) (A) (A) (A) (A) (A) (A) (A) (A) (A) (A) (A)
                 (A) (A) (A) (A) (A) (A) (A) (A) (A) (A) (A) (A)
                 (A) (A) (A) (A) (A) (A) (A) (A) (A) (A) (A) (A)
                 (A) (A) (A) (A) (A) (A) (A) (A) (A) (A) (A) (A)
                 (A) (A) (A) (A) (A) (A) (A) (A) (A) (A) (A) (A)
                 (A) (A) (A) (A) (A) (A) (A) (A) (A) (A) (A) (A)
                 (A) (A) (A) (A) (A) (A) (A) (A) (A) (A) (A) (A)
                 (A) (A) (A) (A) (A) (A) (A) (A) (A) (A) (A) (A)
                 (A) (A) (A) (A) (A) (A) (A) (A) (A) (A) (A) (A)
                 (A) (A) (A) (A) (A) (A) (A) (A) (A) (A) (A) (A)
                 (A) (A) (A) (A) (A) (A) (A) (A) (A) (A) (A) (A)
                 (A) (A) (A) (A) (A) (A) (A) (A) (A) (A) (A) (A)
                 (A) (A) (A) (A) (A) (A) (A) (A) (A) (A) (A) (A)
                 (A) (A) (A) (A) (A) (A) (A) (A) (A) (A) (A) (A)
                 (A) (A) (A) (A) (A) (A) (A) (A) (A) (A) (A) (A)
                 (A) (A) (A) (A) (A) (A) (A) (A) (A) (A) (A) (A)
                 (A) (A) (A) (A) (A) (A) (A) (A) (A) (A) (A) (A)
                 (A) (A) (A) (A) (A) (A) (A) (A) (A) (A) (A) (A)
                 (A) (A) (A) (A) (A) (A) (A) (A) (A) (A) (A) (A)
                 (A) (A) (A) (A) (A) (A) (A) (A) (A) (A) (A) (A)
                 (A) (A) (A) (A) (A) (A) (A) (A) (A) (A) (A) (A)
                 (A) (A) (A) (A) (A) (A) (A) (A) (A) (A) (A) (A)
                 (A) (A) (A) (A) (A) (A) (A) (A) (A) (A) (A) (A)
                 (A) (A) (A) (A) (A) (A) (A) (A) (A) (A) (A) (A)
                 (A) (A) (A) (A) (A) (A) (A) (A) (A) (A) (A) (A)
                 (A) (A) (A) (A) (A) (A) (A) (A) (A) (A) (A) (A)
                 (A) (A) (A) (A) (A) (A) (A) (A)
   200 initial guesses have been made.
 Convergence on wavefunction:    0.001000000000000
 Iteration     1 Dimension   200 NMult     0 NNew    200
 CISAX will form   200 AO SS matrices at one time.
 New state      4 was old state     10
 New state      8 was old state      4
 New state      9 was old state     13
 New state     10 was old state      8
 New state     11 was old state     20
 New state     12 was old state      9
 New state     13 was old state     12
 New state     14 was old state     22
 New state     15 was old state     14
 New state     16 was old state     11
 New state     17 was old state     15
 New state     18 was old state     26
 New state     19 was old state     16
 New state     20 was old state     28
 New state     21 was old state     18
 New state     22 was old state     19
 New state     23 was old state     17
 New state     24 was old state     25
 New state     25 was old state     23
 New state     26 was old state     24
 New state     28 was old state     32
 New state     29 was old state     21
 New state     30 was old state     29
 New state     32 was old state     30
 New state     33 was old state     50
 New state     35 was old state     42
 New state     36 was old state     67
 New state     37 was old state     33
 New state     38 was old state     37
 New state     39 was old state     35
 New state     40 was old state     39
 New state     41 was old state     36
 New state     42 was old state     41
 New state     43 was old state     46
 New state     44 was old state     40
 New state     45 was old state     38
 New state     46 was old state     47
 New state     47 was old state     51
 New state     48 was old state     43
 New state     49 was old state     45
 New state     50 was old state     49
 Iteration     2 Dimension   300 NMult   200 NNew    100
 New state      3 was old state      8
 New state      4 was old state      3
 New state      5 was old state      4
 New state      6 was old state      5
 New state      7 was old state      6
 New state      8 was old state      7
 New state     10 was old state     11
 New state     11 was old state     10
 New state     12 was old state     16
 New state     13 was old state     12
 New state     14 was old state     13
 New state     15 was old state     14
 New state     16 was old state     15
 New state     17 was old state     18
 New state     18 was old state     17
 New state     19 was old state     21
 New state     20 was old state     19
 New state     21 was old state     20
 New state     22 was old state     23
 New state     23 was old state     22
 New state     24 was old state     25
 New state     25 was old state     24
 New state     32 was old state     33
 New state     33 was old state     32
 New state     34 was old state     35
 New state     35 was old state     36
 New state     36 was old state     34
 New state     41 was old state     42
 New state     42 was old state     41
 New state     44 was old state     46
 New state     45 was old state     44
 New state     46 was old state     45
 New state     49 was old state     50
 New state     50 was old state     49
 Iteration     3 Dimension   400 NMult   300 NNew    100
 Iteration     4 Dimension   496 NMult   400 NNew     96
 Iteration     5 Dimension   524 NMult   496 NNew     28
 Iteration     6 Dimension   530 NMult   524 NNew      6
 ***********************************************************************
 Excited states from <AA,BB:AA,BB> singles matrix:
 ***********************************************************************
 
 Ground to excited state transition densities written to RWF  633
 Ground to excited state transition electric dipole moments (Au):
       state          X           Y           Z        Dip. S.      Osc.
         1        -3.5882     -0.5712     -0.0000     13.2014      1.4473
         2        -0.1839     -0.1583      0.0002      0.0589      0.0090
         3         0.2483     -0.2121      0.0007      0.1066      0.0172
         4         0.0004     -0.0002     -0.2217      0.0491      0.0080
         5         0.0002      0.0001      0.0372      0.0014      0.0002
         6        -0.0002      0.0002      0.0057      0.0000      0.0000
         7         0.0006      0.0004      0.0310      0.0010      0.0002
         8         0.2404      0.2807     -0.0001      0.1366      0.0236
         9        -0.0001     -0.0000      0.0020      0.0000      0.0000
        10        -0.0002     -0.0005     -0.0349      0.0012      0.0002
        11         0.0000     -0.0000      0.0071      0.0001      0.0000
        12        -0.2748     -0.3534      0.0000      0.2004      0.0382
        13         0.0004      0.0002      0.0038      0.0000      0.0000
        14         0.0004      0.0004     -0.0322      0.0010      0.0002
        15        -0.0001     -0.0002     -0.0050      0.0000      0.0000
        16        -0.0001      0.0004     -0.0417      0.0017      0.0004
        17        -0.0002      0.0001      0.1420      0.0202      0.0041
        18        -0.0004     -0.0003      0.0937      0.0088      0.0018
        19        -0.4534     -0.9008     -0.0000      1.0171      0.2167
        20         0.0014      0.0005     -0.0830      0.0069      0.0015
        21         0.0004      0.0004      0.0740      0.0055      0.0012
        22        -0.6881     -0.3122     -0.0003      0.5710      0.1229
        23         0.2352      0.0136      0.0003      0.0555      0.0122
        24        -0.2447     -0.0923     -0.0016      0.0684      0.0151
        25         0.0034      0.0011     -0.1449      0.0210      0.0047
        26         0.0004     -0.0000     -0.0464      0.0022      0.0005
        27         0.0004     -0.0003      0.1045      0.0109      0.0025
        28         0.0007      0.0002     -0.1560      0.0243      0.0055
        29         0.0003      0.0004     -0.0791      0.0063      0.0014
        30         0.0248     -0.1957      0.0007      0.0389      0.0089
        31         0.0002      0.0008     -0.0728      0.0053      0.0012
        32        -0.0002      0.0012     -0.0208      0.0004      0.0001
        33         0.2394     -0.5044     -0.0004      0.3117      0.0723
        34         0.0002      0.0006      0.0132      0.0002      0.0000
        35        -0.0002      0.0002     -0.0413      0.0017      0.0004
        36         0.0002     -0.0004     -0.1940      0.0376      0.0089
        37        -0.0003      0.0003     -0.1204      0.0145      0.0035
        38        -0.0006      0.0021     -0.1485      0.0221      0.0054
        39         0.0856     -0.2634      0.0000      0.0767      0.0186
        40         0.0830     -0.2302      0.0004      0.0599      0.0146
        41         0.4593     -0.4690      0.0010      0.4309      0.1054
        42         0.0026     -0.0031     -0.1311      0.0172      0.0042
        43        -0.1574      0.1554      0.0033      0.0489      0.0121
        44        -0.0194      0.0345     -0.0061      0.0016      0.0004
        45        -0.0015      0.0006     -0.3166      0.1003      0.0248
        46        -0.0000      0.0003      0.2544      0.0647      0.0161
        47         0.0007     -0.0009      0.0639      0.0041      0.0010
        48         0.1152     -0.1885     -0.0031      0.0488      0.0123
        49        -0.0003     -0.0006     -0.0632      0.0040      0.0010
        50         0.0003     -0.0003     -0.0602      0.0036      0.0009
 Ground to excited state transition velocity dipole moments (Au):
       state          X           Y           Z        Dip. S.      Osc.
         1         0.6085      0.0976      0.0000      0.3797      1.5395
         2         0.0422      0.0381     -0.0000      0.0032      0.0094
         3        -0.0628      0.0521     -0.0002      0.0067      0.0184
         4        -0.0001      0.0001      0.0600      0.0036      0.0098
         5        -0.0001     -0.0000     -0.0074      0.0001      0.0001
         6         0.0001     -0.0001     -0.0021      0.0000      0.0000
         7        -0.0001     -0.0001     -0.0054      0.0000      0.0001
         8        -0.0655     -0.0740      0.0000      0.0098      0.0252
         9         0.0000      0.0000      0.0002      0.0000      0.0000
        10         0.0001      0.0001      0.0120      0.0001      0.0003
        11        -0.0000      0.0000      0.0017      0.0000      0.0000
        12         0.0803      0.1036     -0.0000      0.0172      0.0400
        13        -0.0001     -0.0001     -0.0024      0.0000      0.0000
        14        -0.0001     -0.0001      0.0079      0.0001      0.0001
        15         0.0001      0.0000      0.0016      0.0000      0.0000
        16         0.0000     -0.0001      0.0118      0.0001      0.0003
        17         0.0001     -0.0000     -0.0453      0.0020      0.0045
        18         0.0001      0.0001     -0.0294      0.0009      0.0019
        19         0.1472      0.2936      0.0000      0.1079      0.2250
        20        -0.0005     -0.0002      0.0308      0.0010      0.0020
        21        -0.0001     -0.0001     -0.0233      0.0005      0.0011
        22         0.2296      0.1073      0.0001      0.0643      0.1326
        23        -0.0822     -0.0053     -0.0001      0.0068      0.0137
        24         0.0855      0.0298      0.0006      0.0082      0.0165
        25        -0.0012     -0.0004      0.0511      0.0026      0.0052
        26        -0.0001      0.0000      0.0193      0.0004      0.0007
        27        -0.0001      0.0001     -0.0328      0.0011      0.0021
        28        -0.0002     -0.0001      0.0538      0.0029      0.0057
        29        -0.0001     -0.0001      0.0388      0.0015      0.0029
        30        -0.0054      0.0662     -0.0002      0.0044      0.0086
        31        -0.0001     -0.0003      0.0296      0.0009      0.0017
        32         0.0001     -0.0004      0.0047      0.0000      0.0000
        33        -0.0857      0.1793      0.0001      0.0395      0.0756
        34        -0.0001     -0.0002     -0.0010      0.0000      0.0000
        35         0.0001     -0.0001      0.0129      0.0002      0.0003
        36        -0.0001      0.0001      0.0669      0.0045      0.0084
        37         0.0001     -0.0001      0.0406      0.0017      0.0030
        38         0.0002     -0.0008      0.0520      0.0027      0.0050
        39        -0.0308      0.0927     -0.0000      0.0095      0.0174
        40        -0.0342      0.0896     -0.0001      0.0092      0.0167
        41        -0.1729      0.1747     -0.0003      0.0604      0.1098
        42        -0.0010      0.0012      0.0420      0.0018      0.0032
        43         0.0548     -0.0539     -0.0012      0.0059      0.0106
        44         0.0076     -0.0126      0.0022      0.0002      0.0004
        45         0.0005     -0.0002      0.1157      0.0134      0.0240
        46         0.0000     -0.0001     -0.0926      0.0086      0.0153
        47        -0.0003      0.0004     -0.0255      0.0007      0.0012
        48        -0.0482      0.0730      0.0012      0.0076      0.0135
        49         0.0001      0.0002      0.0264      0.0007      0.0012
        50        -0.0001      0.0001      0.0287      0.0008      0.0014
 Ground to excited state transition magnetic dipole moments (Au):
       state          X           Y           Z
         1        -0.0001     -0.0004      0.3878
         2         0.0000      0.0002     -0.0840
         3        -0.0006      0.0007     -1.1732
         4         0.4218     -0.1821     -0.0017
         5         0.2025      0.3749     -0.0001
         6         0.0554      0.5679      0.0005
         7        -0.1109     -0.0133     -0.0001
         8        -0.0000     -0.0004     -0.0524
         9        -0.0528     -0.1172      0.0005
        10         0.0906     -0.6446     -0.0002
        11         0.1140     -0.0757      0.0004
        12        -0.0010      0.0005     -0.0826
        13         0.4400     -0.4543      0.0005
        14        -1.6561     -0.1550      0.0006
        15         0.9467     -0.7625      0.0004
        16        -0.3953     -0.3025      0.0005
        17        -0.0872      0.2915      0.0003
        18         0.1294      0.5655      0.0012
        19         0.0001     -0.0008     -0.4162
        20         0.6378      0.1228      0.0003
        21         0.0772     -0.0780      0.0004
        22         0.0013     -0.0000     -0.3580
        23        -0.0004     -0.0004     -0.0179
        24        -0.0011     -0.0019      0.6956
        25        -0.1697      0.0167     -0.0085
        26        -0.1922      0.7351     -0.0002
        27         0.4012     -0.9390     -0.0024
        28        -0.0504     -1.1654     -0.0025
        29         0.3174      0.4082      0.0002
        30         0.0004      0.0017     -1.1199
        31         0.5601     -0.7116      0.0033
        32        -0.4160      0.1123      0.0002
        33        -0.0005     -0.0010      1.0545
        34         0.7059     -0.2735      0.0003
        35        -1.0151     -1.3802     -0.0005
        36        -0.2029     -0.3993     -0.0003
        37         0.4297     -0.1563     -0.0009
        38        -0.2224      0.7567      0.0019
        39         0.0017      0.0068     -0.5505
        40         0.0005      0.0048      1.3698
        41         0.0055      0.0000      0.3248
        42        -0.9242     -0.4960      0.0015
        43         0.0022      0.0137     -0.9270
        44        -0.0027     -0.0174     -0.1573
        45        -0.1531     -0.8846     -0.0060
        46         0.4509      0.1856      0.0010
        47        -0.5800      1.0916      0.0017
        48         0.0015     -0.0070      0.2045
        49         0.7916     -1.2075     -0.0006
        50         0.0280      0.5114      0.0004
 Ground to excited state transition velocity quadrupole moments (Au):
       state          XX          YY          ZZ          XY          XZ          YZ
         1        -0.0924      0.0172      0.0096     -0.4463      0.0002      0.0001
         2        -2.5154     -0.0033      0.0158     -0.3722     -0.0001     -0.0000
         3        -4.4437      0.0070     -0.0123     -1.0551     -0.0006     -0.0005
         4        -0.0057      0.0001     -0.0000     -0.0013      0.2027      0.2673
         5         0.0003      0.0001     -0.0001      0.0001     -0.1931      0.0418
         6         0.0021      0.0001     -0.0004      0.0007     -0.5079     -0.0270
         7        -0.0018      0.0000     -0.0001     -0.0001     -0.1207     -0.0489
         8        -0.0002     -0.1168      0.0193      0.0160      0.0003     -0.0000
         9         0.0005     -0.0002      0.0002      0.0003     -0.0190      0.0055
        10         0.0009      0.0005     -0.0001     -0.0004      0.3462      0.0649
        11        -0.0000      0.0003      0.0001      0.0002      0.0443     -0.0612
        12         0.2740      0.3863     -0.0067     -0.2358     -0.0001     -0.0001
        13         0.0014     -0.0005      0.0004      0.0006      0.3524      0.1433
        14         0.0001     -0.0002     -0.0001      0.0007      0.0380     -0.2879
        15        -0.0011      0.0002     -0.0003      0.0001      0.3844      0.2494
        16         0.0022     -0.0000     -0.0001      0.0005      0.2168     -0.1610
        17         0.0018     -0.0000     -0.0003      0.0001     -0.0827     -0.0567
        18        -0.0003      0.0002      0.0001      0.0007     -0.4125      0.1776
        19         1.0203      0.3107      0.1318     -0.3435      0.0004     -0.0001
        20         0.0041      0.0003     -0.0000      0.0012     -0.0372      0.5356
        21        -0.0002     -0.0001     -0.0000      0.0001     -0.1789      0.1243
        22        -2.3994      0.0778     -0.1886     -0.6681      0.0004      0.0009
        23        -1.2005      0.0165     -0.1442     -0.1338      0.0000      0.0001
        24        -0.3743      0.0102      0.0825      0.7693      0.0020     -0.0022
        25         0.0012      0.0005     -0.0010     -0.0092      0.0081     -0.2697
        26         0.0013      0.0001     -0.0001     -0.0001     -0.4858     -0.1239
        27         0.0000      0.0000      0.0002     -0.0024      0.7336      0.2232
        28        -0.0013      0.0005      0.0002     -0.0027      0.9991      0.1966
        29        -0.0015      0.0002     -0.0001      0.0005     -0.2422      0.1193
        30        -2.1839      0.3836      0.0420     -1.1421     -0.0014     -0.0001
        31         0.0047     -0.0008      0.0001      0.0027      0.2526      0.1871
        32         0.0058     -0.0012     -0.0000     -0.0005      0.3189     -0.1138
        33        -1.3652      0.3428      0.0026      1.6084      0.0014      0.0004
        34         0.0005     -0.0002     -0.0001      0.0008      0.1486      0.2452
        35        -0.0002     -0.0000      0.0000     -0.0010      0.3749     -0.2570
        36        -0.0030      0.0004      0.0001     -0.0001     -0.1480      0.1693
        37         0.0026     -0.0002     -0.0001     -0.0029      0.0770      0.2063
        38         0.0109     -0.0021     -0.0002     -0.0063     -0.6849     -0.3204
        39        -1.2066      0.3878     -0.0028      0.8535     -0.0056     -0.0004
        40        -2.2439      0.0176     -0.0095      0.7153     -0.0038      0.0002
        41         0.2809      0.2986      0.0286      0.6946      0.0018      0.0022
        42        -0.0019      0.0018      0.0007      0.0060      0.0547     -0.4212
        43        -0.3946      0.0222      0.2150     -0.7634     -0.0110      0.0016
        44         0.3412      0.1352      0.0677     -0.6473      0.0163     -0.0033
        45        -0.0254     -0.0001      0.0003      0.0062      0.8238     -0.1437
        46         0.0017     -0.0005     -0.0002      0.0012     -0.1035      0.4026
        47         0.0094     -0.0021      0.0005      0.0013     -0.8325     -0.1305
        48         1.2698     -0.2723      0.0996      0.2932      0.0090     -0.0005
        49         0.0032     -0.0008      0.0003     -0.0006     -0.0052      0.2891
        50         0.0021     -0.0004     -0.0003      0.0006     -0.1061      0.1099
 <0|del|b> * <b|rxdel|0> + <0|del|b> * <b|delr+rdel|0>
 Rotatory Strengths (R) in cgs (10**-40 erg-esu-cm/Gauss)
       state          XX          YY          ZZ    R(velocity)    E-M Angle
         1        -0.1073      0.0463     -0.2803     -0.1138       90.00
         2         0.0432     -0.0160      0.0128      0.0134       90.00
         3         0.6945      0.1256      0.0201      0.2801       89.83
         4        -0.2950     -0.1254     -0.0181     -0.1462       90.31
         5        -0.0296     -0.0161     -0.0208     -0.0222       90.00
         6        -0.0875      0.0027      0.0016     -0.0277       90.00
         7        -0.0126      0.0323      0.0302      0.0166       90.00
         8         0.0690      0.0003      0.0136      0.0276       90.00
         9        -0.0002     -0.0013     -0.0022     -0.0013       90.00
        10        -0.1833      0.0170     -0.0498     -0.0721       90.00
        11         0.0005     -0.0000     -0.0010     -0.0002       90.00
        12         0.0843     -0.1178     -0.0429     -0.0255       90.00
        13         0.0601     -0.0807     -0.0331     -0.0179       90.00
        14         0.0365      0.2823      0.2145      0.1778       89.04
        15        -0.0649      0.0774      0.0230      0.0118       90.00
        16         0.0827     -0.0207      0.0029      0.0216       90.00
        17        -0.0340     -0.0190     -0.0115     -0.0215       90.00
        18         0.0177      0.0316      0.0048      0.0180       90.00
        19        -0.4051      0.0045     -0.0789     -0.1598       90.09
        20         0.0216     -0.6379     -0.0692     -0.2285       90.89
        21        -0.0265     -0.0392      0.0427     -0.0077       90.00
        22        -0.1799      0.6059      0.1510      0.1923       89.83
        23         0.0178      0.0127      0.0420      0.0242       90.00
        24         0.8007     -0.3479      0.1039      0.1856       89.76
        25        -0.9638      0.5940     -0.1359     -0.1685       91.56
        26         0.0158      0.0464      0.0152      0.0258       90.00
        27         0.0042     -0.0866     -0.0436     -0.0420       90.00
        28        -0.1223     -0.0233      0.0733     -0.0241       90.00
        29        -0.0698     -0.0661     -0.0482     -0.0614       90.00
        30         0.7455     -0.0071      0.0201      0.2528       89.72
        31         0.4736     -0.0253      0.1177      0.1887       89.41
        32         0.0906     -0.0314     -0.2119     -0.0509       90.00
        33        -0.0457     -0.0661      0.1499      0.0127       90.00
        34         0.0914     -0.0634     -0.0036      0.0081       90.00
        35         0.0733     -0.0702      0.0072      0.0034       90.00
        36        -0.0618     -0.0161     -0.0450     -0.0410       90.00
        37        -0.1291      0.1527      0.0340      0.0192       90.00
        38        -1.2745      0.2987     -0.0318     -0.3359       90.72
        39         1.1071     -0.0230      0.0475      0.3772       89.38
        40         0.4901     -0.1034      0.0757      0.1541       89.90
        41        -0.6205     -1.1554     -0.2399     -0.6719       90.75
        42        -0.3068      1.0951     -0.0121      0.2588       89.47
        43         0.6390      0.3848     -0.1107      0.3044       89.62
        44        -1.2958      0.9920      0.0175     -0.0954       93.65
        45         0.3244     -1.4842      0.0062     -0.3845       90.33
        46        -0.2332      0.0301     -0.0091     -0.0707       90.14
        47         0.5751      0.2001      0.2208      0.3320       89.04
        48        -0.5534     -0.1417      0.0436     -0.2171       91.11
        49        -0.2775      0.0884     -0.2095     -0.1329       90.32
        50         0.0982     -0.0229      0.0577      0.0443       90.00
 1/2[<0|r|b>*<b|rxdel|0> + (<0|rxdel|b>*<b|r|0>)*]
 Rotatory Strengths (R) in cgs (10**-40 erg-esu-cm/Gauss)
       state          XX          YY          ZZ     R(length)
         1        -0.1993     -0.1439      0.0088     -0.1114
         2         0.0057      0.0229      0.0111      0.0132
         3         0.0970      0.1091      0.5869      0.2643
         4        -0.1139     -0.0287     -0.2721     -0.1382
         5        -0.0289     -0.0392      0.0013     -0.0223
         6         0.0075     -0.0914     -0.0020     -0.0286
         7         0.0436      0.0036      0.0030      0.0167
         8         0.0044      0.0811     -0.0047      0.0269
         9        -0.0030     -0.0021     -0.0007     -0.0020
        10         0.0155     -0.2156     -0.0058     -0.0686
        11        -0.0013     -0.0001     -0.0018     -0.0010
        12        -0.2039      0.1251      0.0024     -0.0255
        13        -0.1127      0.0667     -0.0014     -0.0158
        14         0.4731      0.0389      0.0128      0.1749
        15         0.0964     -0.0940      0.0016      0.0013
        16        -0.0273      0.0777      0.0134      0.0212
        17        -0.0102     -0.0231     -0.0261     -0.0198
        18         0.0362      0.1011     -0.0773      0.0200
        19         0.0410     -0.5042     -0.0031     -0.1554
        20        -0.6413     -0.0445      0.0187     -0.2224
        21        -0.0222      0.0219     -0.0225     -0.0076
        22         0.6495     -0.0077     -0.0723      0.1898
        23         0.0606      0.0038      0.0032      0.0225
        24        -0.1920     -0.1215      0.8057      0.1641
        25         0.4118     -0.0131     -0.8669     -0.1561
        26         0.0575      0.0237     -0.0075      0.0245
        27        -0.1063     -0.1702      0.1741     -0.0341
        28         0.0250      0.1567     -0.2730     -0.0304
        29        -0.0756     -0.1159      0.0087     -0.0609
        30        -0.0072      0.2358      0.5260      0.2516
        31        -0.0603      0.4190      0.1696      0.1761
        32        -0.0530     -0.0983      0.0028     -0.0495
        33         0.0924     -0.3508      0.2955      0.0123
        34        -0.0857      0.1133     -0.0028      0.0083
        35        -0.1218      0.1557     -0.0143      0.0066
        36         0.0320     -0.1070     -0.0474     -0.0408
        37         0.0954      0.0310     -0.0791      0.0158
        38        -0.0909     -1.1201      0.1988     -0.3374
        39        -0.1041      1.2668      0.0064      0.3897
        40        -0.0282      0.7856     -0.3547      0.1343
        41        -1.7740      0.0098     -0.2231     -0.6625
        42         1.6769     -1.0797      0.1424      0.2465
        43         0.2442     -1.5064      2.1406      0.2928
        44        -0.0373      0.4248     -0.6766     -0.0964
        45        -0.1598      0.3753     -1.3391     -0.3745
        46         0.0088     -0.0397     -0.1880     -0.0730
        47         0.3029      0.7139     -0.0790      0.3126
        48        -0.1249     -0.9331      0.4476     -0.2035
        49         0.1541     -0.4760     -0.0260     -0.1159
        50        -0.0065      0.1188      0.0162      0.0428
  1/2[<0|del|b>*<b|r|0> + (<0|r|b>*<b|del|0>)*] (Au)
       state          X           Y           Z        Dip. S.   Osc.(frdel)
         1        -2.1833     -0.0557     -0.0000      2.2390      1.4927
         2        -0.0078     -0.0060     -0.0000      0.0138      0.0092
         3        -0.0156     -0.0111     -0.0000      0.0266      0.0178
         4        -0.0000     -0.0000     -0.0133      0.0133      0.0089
         5        -0.0000     -0.0000     -0.0003      0.0003      0.0002
         6        -0.0000     -0.0000     -0.0000      0.0000      0.0000
         7        -0.0000     -0.0000     -0.0002      0.0002      0.0001
         8        -0.0158     -0.0208     -0.0000      0.0365      0.0244
         9        -0.0000     -0.0000      0.0000     -0.0000     -0.0000
        10        -0.0000     -0.0000     -0.0004      0.0004      0.0003
        11        -0.0000     -0.0000      0.0000     -0.0000     -0.0000
        12        -0.0221     -0.0366     -0.0000      0.0587      0.0391
        13        -0.0000     -0.0000     -0.0000      0.0000      0.0000
        14        -0.0000     -0.0000     -0.0003      0.0003      0.0002
        15        -0.0000     -0.0000     -0.0000      0.0000      0.0000
        16        -0.0000     -0.0000     -0.0005      0.0005      0.0003
        17        -0.0000     -0.0000     -0.0064      0.0064      0.0043
        18        -0.0000     -0.0000     -0.0028      0.0028      0.0018
        19        -0.0668     -0.2645     -0.0000      0.3313      0.2209
        20        -0.0000     -0.0000     -0.0026      0.0026      0.0017
        21        -0.0000     -0.0000     -0.0017      0.0017      0.0011
        22        -0.1580     -0.0335     -0.0000      0.1915      0.1277
        23        -0.0193     -0.0001     -0.0000      0.0194      0.0129
        24        -0.0209     -0.0028     -0.0000      0.0237      0.0158
        25        -0.0000     -0.0000     -0.0074      0.0074      0.0049
        26        -0.0000     -0.0000     -0.0009      0.0009      0.0006
        27        -0.0000     -0.0000     -0.0034      0.0034      0.0023
        28        -0.0000     -0.0000     -0.0084      0.0084      0.0056
        29        -0.0000     -0.0000     -0.0031      0.0031      0.0020
        30        -0.0001     -0.0130     -0.0000      0.0131      0.0087
        31        -0.0000     -0.0000     -0.0022      0.0022      0.0014
        32        -0.0000     -0.0000     -0.0001      0.0001      0.0001
        33        -0.0205     -0.0904     -0.0000      0.1109      0.0740
        34        -0.0000     -0.0000     -0.0000      0.0000      0.0000
        35        -0.0000     -0.0000     -0.0005      0.0005      0.0004
        36        -0.0000     -0.0000     -0.0130      0.0130      0.0087
        37        -0.0000     -0.0000     -0.0049      0.0049      0.0033
        38        -0.0000     -0.0000     -0.0077      0.0077      0.0052
        39        -0.0026     -0.0244     -0.0000      0.0270      0.0180
        40        -0.0028     -0.0206     -0.0000      0.0235      0.0156
        41        -0.0794     -0.0820     -0.0000      0.1614      0.1076
        42        -0.0000     -0.0000     -0.0055      0.0055      0.0037
        43        -0.0086     -0.0084     -0.0000      0.0170      0.0113
        44        -0.0001     -0.0004     -0.0000      0.0006      0.0004
        45        -0.0000     -0.0000     -0.0366      0.0366      0.0244
        46        -0.0000     -0.0000     -0.0236      0.0236      0.0157
        47        -0.0000     -0.0000     -0.0016      0.0016      0.0011
        48        -0.0056     -0.0138     -0.0000      0.0193      0.0129
        49        -0.0000     -0.0000     -0.0017      0.0017      0.0011
        50        -0.0000     -0.0000     -0.0017      0.0017      0.0012

 Excitation energies and oscillator strengths:
 
 Excited State   1:      Singlet-A      4.4747 eV  277.08 nm  f=1.4473  <S**2>=0.000
      38 -> 39         0.70550
 This state for optimization and/or second-order correction.
 Total Energy, E(TD-HF/TD-DFT) =  -390.454125382    
 Copying the excited state density for this state as the 1-particle RhoCI density.
 
 Excited State   2:      Singlet-A      6.2298 eV  199.02 nm  f=0.0090  <S**2>=0.000
      37 -> 39         0.67121
      38 -> 41        -0.18719
 
 Excited State   3:      Singlet-A      6.5757 eV  188.55 nm  f=0.0172  <S**2>=0.000
      37 -> 39         0.19406
      38 -> 41         0.67131
 
 Excited State   4:      Singlet-A      6.6318 eV  186.95 nm  f=0.0080  <S**2>=0.000
      37 -> 42         0.11584
      38 -> 40         0.67660
 
 Excited State   5:      Singlet-A      6.8225 eV  181.73 nm  f=0.0002  <S**2>=0.000
      34 -> 41        -0.11079
      36 -> 39         0.58174
      38 -> 43         0.30969
      38 -> 45        -0.13632
 
 Excited State   6:      Singlet-A      6.9202 eV  179.16 nm  f=0.0000  <S**2>=0.000
      37 -> 40         0.15075
      38 -> 42         0.62973
      38 -> 43        -0.19496
 
 Excited State   7:      Singlet-A      6.9434 eV  178.56 nm  f=0.0002  <S**2>=0.000
      36 -> 39        -0.33991
      38 -> 42         0.18469
      38 -> 43         0.52101
      38 -> 45        -0.21505
 
 Excited State   8:      Singlet-A      7.0378 eV  176.17 nm  f=0.0236  <S**2>=0.000
      35 -> 39         0.15542
      38 -> 44         0.67872
 
 Excited State   9:      Singlet-A      7.3305 eV  169.14 nm  f=0.0000  <S**2>=0.000
      34 -> 39         0.63375
      36 -> 41        -0.19154
 
 Excited State  10:      Singlet-A      7.5485 eV  164.25 nm  f=0.0002  <S**2>=0.000
      30 -> 39        -0.14054
      31 -> 41         0.11100
      32 -> 39         0.23444
      33 -> 39         0.58886
 
 Excited State  11:      Singlet-A      7.6655 eV  161.74 nm  f=0.0000  <S**2>=0.000
      37 -> 42         0.13490
      38 -> 43         0.22187
      38 -> 45         0.58541
      38 -> 47         0.19488
 
 Excited State  12:      Singlet-A      7.7842 eV  159.28 nm  f=0.0382  <S**2>=0.000
      35 -> 39         0.66257
      37 -> 41         0.18364
      38 -> 44        -0.12478
 
 Excited State  13:      Singlet-A      7.8768 eV  157.40 nm  f=0.0000  <S**2>=0.000
      32 -> 39        -0.10235
      37 -> 43         0.14060
      37 -> 45        -0.10882
      38 -> 45        -0.15330
      38 -> 46         0.51652
      38 -> 47         0.26499
      38 -> 49        -0.20059
 
 Excited State  14:      Singlet-A      7.9524 eV  155.91 nm  f=0.0002  <S**2>=0.000
      30 -> 39        -0.24347
      32 -> 39         0.42974
      33 -> 39        -0.22745
      34 -> 41         0.18855
      36 -> 44         0.10193
      38 -> 47         0.25568
      38 -> 48        -0.15791
 
 Excited State  15:      Singlet-A      8.0633 eV  153.76 nm  f=0.0000  <S**2>=0.000
      30 -> 39         0.11661
      32 -> 39        -0.21094
      33 -> 39         0.11286
      38 -> 45        -0.10514
      38 -> 46        -0.18134
      38 -> 47         0.40827
      38 -> 48        -0.28871
      38 -> 49         0.26319
 
 Excited State  16:      Singlet-A      8.2599 eV  150.10 nm  f=0.0004  <S**2>=0.000
      31 -> 39        -0.26704
      33 -> 41        -0.12667
      37 -> 46         0.12713
      38 -> 46        -0.19503
      38 -> 47         0.24471
      38 -> 48         0.48537
 
 Excited State  17:      Singlet-A      8.3242 eV  148.94 nm  f=0.0041  <S**2>=0.000
      28 -> 39         0.11213
      31 -> 39         0.50470
      33 -> 41         0.22827
      36 -> 41        -0.11550
      38 -> 46        -0.16724
      38 -> 47         0.14115
      38 -> 48         0.22339
 
 Excited State  18:      Singlet-A      8.4433 eV  146.84 nm  f=0.0018  <S**2>=0.000
      37 -> 45         0.10706
      37 -> 47         0.14628
      38 -> 46         0.26656
      38 -> 48         0.18072
      38 -> 49         0.56833
 
 Excited State  19:      Singlet-A      8.6982 eV  142.54 nm  f=0.2167  <S**2>=0.000
      35 -> 39        -0.13654
      37 -> 41         0.55102
      38 -> 50        -0.34133
      38 -> 52         0.15737
 
 Excited State  20:      Singlet-A      8.7241 eV  142.12 nm  f=0.0015  <S**2>=0.000
      37 -> 40         0.54448
      37 -> 42         0.26921
      37 -> 45        -0.11430
      38 -> 42        -0.13376
      38 -> 46         0.11108
      38 -> 53        -0.13793
 
 Excited State  21:      Singlet-A      8.7439 eV  141.80 nm  f=0.0012  <S**2>=0.000
      22 -> 39        -0.11125
      26 -> 39        -0.10156
      30 -> 39         0.56222
      32 -> 39         0.30161
      32 -> 41        -0.13250
 
 Excited State  22:      Singlet-A      8.7881 eV  141.08 nm  f=0.1229  <S**2>=0.000
      37 -> 41         0.34419
      37 -> 50         0.10358
      38 -> 50         0.54554
      38 -> 52        -0.16898
 
 Excited State  23:      Singlet-A      8.9469 eV  138.58 nm  f=0.0122  <S**2>=0.000
      37 -> 51        -0.16117
      38 -> 51         0.66775
 
 Excited State  24:      Singlet-A      9.0173 eV  137.50 nm  f=0.0151  <S**2>=0.000
      35 -> 41        -0.15782
      37 -> 44         0.47606
      38 -> 50         0.16777
      38 -> 51        -0.10582
      38 -> 52         0.41563
 
 Excited State  25:      Singlet-A      9.0485 eV  137.02 nm  f=0.0047  <S**2>=0.000
      37 -> 40         0.21098
      37 -> 42        -0.15972
      37 -> 49         0.16864
      38 -> 53         0.49810
      38 -> 54         0.23202
      38 -> 55         0.10395
 
 Excited State  26:      Singlet-A      9.1365 eV  135.70 nm  f=0.0005  <S**2>=0.000
      28 -> 39        -0.28175
      31 -> 39         0.12140
      34 -> 39         0.10549
      36 -> 41         0.17578
      37 -> 43         0.46700
      37 -> 45        -0.15669
 
 Excited State  27:      Singlet-A      9.1898 eV  134.91 nm  f=0.0025  <S**2>=0.000
      28 -> 39         0.30801
      31 -> 39        -0.12793
      35 -> 40         0.10874
      36 -> 41        -0.12540
      37 -> 40        -0.17488
      37 -> 42         0.32708
      37 -> 43         0.25865
      38 -> 54         0.23297
 
 Excited State  28:      Singlet-A      9.2064 eV  134.67 nm  f=0.0055  <S**2>=0.000
      28 -> 39        -0.25558
      36 -> 41         0.10653
      37 -> 40        -0.16236
      37 -> 43        -0.14686
      38 -> 53        -0.16908
      38 -> 54         0.44715
      38 -> 55         0.23235
 
 Excited State  29:      Singlet-A      9.2582 eV  133.92 nm  f=0.0014  <S**2>=0.000
      28 -> 39        -0.21194
      35 -> 40         0.10681
      37 -> 40        -0.13021
      37 -> 42         0.41979
      37 -> 43        -0.21834
      37 -> 45         0.12287
      38 -> 40        -0.11603
      38 -> 53         0.29140
      38 -> 54        -0.12159
 
 Excited State  30:      Singlet-A      9.3096 eV  133.18 nm  f=0.0089  <S**2>=0.000
      35 -> 41         0.17145
      37 -> 41        -0.10390
      37 -> 44        -0.41749
      38 -> 50         0.11266
      38 -> 52         0.48928
 
 Excited State  31:      Singlet-A      9.4258 eV  131.54 nm  f=0.0012  <S**2>=0.000
      26 -> 39         0.33264
      28 -> 39        -0.21463
      32 -> 39         0.12962
      34 -> 44        -0.10111
      36 -> 41        -0.15600
      38 -> 54        -0.19848
      38 -> 55         0.36680
 
 Excited State  32:      Singlet-A      9.4335 eV  131.43 nm  f=0.0001  <S**2>=0.000
      26 -> 39        -0.31346
      28 -> 39         0.17565
      31 -> 41        -0.11535
      32 -> 39        -0.10334
      34 -> 44         0.10671
      36 -> 41         0.13856
      37 -> 49         0.11771
      38 -> 54        -0.22508
      38 -> 55         0.39463
 
 Excited State  33:      Singlet-A      9.4717 eV  130.90 nm  f=0.0723  <S**2>=0.000
      29 -> 39         0.67010
      29 -> 41        -0.20021
 
 Excited State  34:      Singlet-A      9.5614 eV  129.67 nm  f=0.0000  <S**2>=0.000
      26 -> 39         0.26278
      28 -> 39         0.19675
      30 -> 41        -0.12836
      32 -> 41         0.12906
      34 -> 39         0.13482
      34 -> 41        -0.12235
      34 -> 44         0.19473
      36 -> 41         0.45185
      36 -> 44        -0.11992
 
 Excited State  35:      Singlet-A      9.6234 eV  128.84 nm  f=0.0004  <S**2>=0.000
      23 -> 39         0.14783
      28 -> 41         0.12030
      30 -> 41         0.10424
      32 -> 39        -0.14308
      34 -> 41         0.33044
      36 -> 41         0.14489
      36 -> 44         0.39634
      38 -> 54        -0.11288
      38 -> 56        -0.14037
 
 Excited State  36:      Singlet-A      9.6518 eV  128.46 nm  f=0.0089  <S**2>=0.000
      36 -> 44         0.10070
      37 -> 54        -0.14668
      38 -> 56         0.58057
 
 Excited State  37:      Singlet-A      9.8156 eV  126.31 nm  f=0.0035  <S**2>=0.000
      35 -> 43        -0.14980
      37 -> 43        -0.12406
      37 -> 45        -0.20172
      37 -> 46        -0.17351
      37 -> 47        -0.15644
      37 -> 48        -0.17237
      37 -> 53         0.11061
      38 -> 54        -0.10911
      38 -> 56        -0.11179
      38 -> 58         0.31963
      38 -> 59         0.35367
      38 -> 61        -0.10469
 
 Excited State  38:      Singlet-A      9.8991 eV  125.25 nm  f=0.0054  <S**2>=0.000
      37 -> 43         0.17339
      37 -> 45         0.54177
      37 -> 46        -0.13218
      37 -> 47        -0.14074
      38 -> 58         0.16946
 
 Excited State  39:      Singlet-A      9.9252 eV  124.92 nm  f=0.0186  <S**2>=0.000
      34 -> 42         0.11485
      36 -> 40        -0.25092
      37 -> 57        -0.14380
      38 -> 57         0.57837
 
 Excited State  40:      Singlet-A      9.9753 eV  124.29 nm  f=0.0146  <S**2>=0.000
      27 -> 39        -0.39679
      34 -> 40         0.10862
      34 -> 42        -0.21036
      36 -> 40         0.40535
      38 -> 57         0.16638
      38 -> 60         0.17187
 
 Excited State  41:      Singlet-A      9.9824 eV  124.20 nm  f=0.1054  <S**2>=0.000
      25 -> 39        -0.10894
      27 -> 39         0.48886
      27 -> 41         0.11518
      34 -> 42        -0.14810
      35 -> 41         0.12153
      36 -> 40         0.29579
      38 -> 57         0.24329
      38 -> 60        -0.10178
 
 Excited State  42:      Singlet-A     10.0161 eV  123.78 nm  f=0.0042  <S**2>=0.000
      35 -> 40        -0.21048
      35 -> 42        -0.10898
      35 -> 43         0.23161
      37 -> 46         0.34704
      37 -> 49        -0.16833
      37 -> 53         0.12818
      38 -> 55         0.17813
      38 -> 58         0.18882
      38 -> 59         0.23764
      38 -> 64        -0.10809
 
 Excited State  43:      Singlet-A     10.0685 eV  123.14 nm  f=0.0121  <S**2>=0.000
      35 -> 41         0.42216
      37 -> 44         0.22117
      37 -> 52         0.11763
      38 -> 57        -0.14834
      38 -> 60         0.34542
      38 -> 63         0.23025
 
 Excited State  44:      Singlet-A     10.1032 eV  122.72 nm  f=0.0004  <S**2>=0.000
      32 -> 42        -0.10892
      34 -> 40        -0.41558
      34 -> 42        -0.17153
      34 -> 43        -0.11797
      36 -> 40         0.16476
      36 -> 42         0.43652
 
 Excited State  45:      Singlet-A     10.1101 eV  122.63 nm  f=0.0248  <S**2>=0.000
      37 -> 47         0.13203
      37 -> 55        -0.14878
      37 -> 58         0.10871
      38 -> 58         0.44893
      38 -> 59        -0.31914
      38 -> 62        -0.23406
 
 Excited State  46:      Singlet-A     10.1520 eV  122.13 nm  f=0.0161  <S**2>=0.000
      35 -> 40         0.15282
      35 -> 45        -0.13460
      37 -> 42        -0.13802
      37 -> 47         0.47813
      37 -> 48        -0.16891
      37 -> 49         0.17484
      38 -> 49        -0.12019
      38 -> 59         0.18752
      38 -> 61        -0.12357
 
 Excited State  47:      Singlet-A     10.2396 eV  121.08 nm  f=0.0010  <S**2>=0.000
      22 -> 39         0.22104
      26 -> 39         0.11611
      26 -> 41        -0.13069
      31 -> 41        -0.12124
      33 -> 44         0.18650
      38 -> 59        -0.10471
      38 -> 62         0.48836
 
 Excited State  48:      Singlet-A     10.2576 eV  120.87 nm  f=0.0123  <S**2>=0.000
      27 -> 39         0.19619
      35 -> 41        -0.41070
      37 -> 44        -0.10044
      37 -> 60         0.13004
      38 -> 60         0.47758
 
 Excited State  49:      Singlet-A     10.2682 eV  120.75 nm  f=0.0010  <S**2>=0.000
      22 -> 39        -0.22036
      23 -> 39         0.12876
      26 -> 39        -0.15243
      26 -> 41         0.13684
      30 -> 39        -0.10071
      31 -> 41         0.15398
      33 -> 44        -0.24565
      34 -> 41        -0.17084
      38 -> 58         0.19226
      38 -> 59        -0.17091
      38 -> 62         0.32270
 
 Excited State  50:      Singlet-A     10.3528 eV  119.76 nm  f=0.0009  <S**2>=0.000
      23 -> 39         0.11716
      23 -> 41        -0.13207
      26 -> 39        -0.10721
      28 -> 39        -0.11222
      30 -> 39        -0.11581
      31 -> 39        -0.23303
      31 -> 44        -0.15418
      33 -> 41         0.48324
      34 -> 44         0.15435
 SavETr:  write IOETrn=   770 NScale= 10 NData=  16 NLR=1 NState=   50 LETran=     910.

 **********************************************************************

            Population analysis using the SCF Density.

 **********************************************************************

 Orbital symmetries:
       Occupied  (A) (A) (A) (A) (A) (A) (A) (A) (A) (A) (A) (A)
                 (A) (A) (A) (A) (A) (A) (A) (A) (A) (A) (A) (A)
                 (A) (A) (A) (A) (A) (A) (A) (A) (A) (A) (A) (A)
                 (A) (A)
       Virtual   (A) (A) (A) (A) (A) (A) (A) (A) (A) (A) (A) (A)
                 (A) (A) (A) (A) (A) (A) (A) (A) (A) (A) (A) (A)
                 (A) (A) (A) (A) (A) (A) (A) (A) (A) (A) (A) (A)
                 (A) (A) (A) (A) (A) (A) (A) (A) (A) (A) (A) (A)
                 (A) (A) (A) (A) (A) (A) (A) (A) (A) (A) (A) (A)
                 (A) (A) (A) (A) (A) (A) (A) (A) (A) (A) (A) (A)
                 (A) (A) (A) (A) (A) (A) (A) (A) (A) (A) (A) (A)
                 (A) (A) (A) (A) (A) (A) (A) (A) (A) (A) (A) (A)
                 (A) (A) (A) (A) (A) (A) (A) (A) (A) (A) (A) (A)
                 (A) (A) (A) (A) (A) (A) (A) (A) (A) (A) (A) (A)
                 (A) (A) (A) (A) (A) (A) (A) (A) (A) (A) (A) (A)
                 (A) (A) (A) (A) (A) (A) (A) (A) (A) (A) (A) (A)
                 (A) (A) (A) (A) (A) (A) (A) (A) (A) (A) (A) (A)
                 (A) (A) (A) (A) (A) (A) (A) (A) (A) (A) (A) (A)
                 (A) (A) (A) (A) (A) (A) (A) (A) (A) (A) (A) (A)
                 (A) (A) (A) (A) (A) (A) (A) (A) (A) (A) (A) (A)
                 (A) (A) (A) (A) (A) (A) (A) (A) (A) (A) (A) (A)
                 (A) (A) (A) (A) (A) (A) (A) (A) (A) (A) (A) (A)
                 (A) (A) (A) (A) (A) (A) (A) (A) (A) (A) (A) (A)
                 (A) (A) (A) (A) (A) (A) (A) (A) (A) (A) (A) (A)
                 (A) (A) (A) (A) (A) (A) (A) (A) (A) (A) (A) (A)
                 (A) (A) (A) (A) (A) (A) (A) (A) (A) (A) (A) (A)
                 (A) (A) (A) (A) (A) (A) (A) (A) (A) (A) (A) (A)
                 (A) (A) (A) (A) (A) (A) (A) (A) (A) (A) (A) (A)
                 (A) (A) (A) (A) (A) (A) (A) (A) (A) (A) (A) (A)
                 (A) (A) (A) (A) (A) (A) (A) (A) (A) (A) (A) (A)
                 (A) (A) (A) (A) (A) (A) (A) (A) (A) (A) (A) (A)
                 (A) (A) (A) (A) (A) (A) (A) (A) (A) (A) (A) (A)
                 (A) (A) (A) (A) (A) (A) (A) (A) (A) (A) (A) (A)
                 (A) (A) (A) (A) (A) (A) (A) (A) (A) (A) (A) (A)
                 (A) (A) (A) (A) (A) (A) (A) (A)
 The electronic state is 1-A.
 Alpha  occ. eigenvalues --  -10.54696 -10.54279 -10.53534 -10.53470 -10.53364
 Alpha  occ. eigenvalues --  -10.52734 -10.52301 -10.52227 -10.52148 -10.52120
 Alpha  occ. eigenvalues --   -0.92822  -0.90685  -0.85508  -0.81015  -0.77637
 Alpha  occ. eigenvalues --   -0.76801  -0.73474  -0.64758  -0.60186  -0.58097
 Alpha  occ. eigenvalues --   -0.54420  -0.52293  -0.50198  -0.49344  -0.48361
 Alpha  occ. eigenvalues --   -0.47426  -0.45963  -0.44053  -0.43940  -0.43220
 Alpha  occ. eigenvalues --   -0.42708  -0.41993  -0.40919  -0.39258  -0.38418
 Alpha  occ. eigenvalues --   -0.37897  -0.31927  -0.24406
 Alpha virt. eigenvalues --   -0.00747   0.07782   0.07835   0.08636   0.09837
 Alpha virt. eigenvalues --    0.11054   0.11628   0.12573   0.13275   0.14174
 Alpha virt. eigenvalues --    0.14612   0.15452   0.15640   0.16947   0.17515
 Alpha virt. eigenvalues --    0.17818   0.18894   0.19512   0.19523   0.20132
 Alpha virt. eigenvalues --    0.21241   0.21669   0.22208   0.22600   0.23431
 Alpha virt. eigenvalues --    0.24466   0.25593   0.26038   0.27465   0.28078
 Alpha virt. eigenvalues --    0.28450   0.29174   0.30389   0.32901   0.32963
 Alpha virt. eigenvalues --    0.33425   0.34252   0.34278   0.34965   0.37090
 Alpha virt. eigenvalues --    0.37591   0.39316   0.39356   0.40562   0.41332
 Alpha virt. eigenvalues --    0.41453   0.42816   0.43124   0.43313   0.44990
 Alpha virt. eigenvalues --    0.46062   0.46159   0.46809   0.47437   0.48244
 Alpha virt. eigenvalues --    0.49347   0.50403   0.51431   0.51657   0.52358
 Alpha virt. eigenvalues --    0.52798   0.53058   0.53303   0.53517   0.54258
 Alpha virt. eigenvalues --    0.55059   0.56026   0.57222   0.58906   0.61444
 Alpha virt. eigenvalues --    0.62413   0.63317   0.64255   0.64758   0.65192
 Alpha virt. eigenvalues --    0.66855   0.67712   0.68641   0.69028   0.70307
 Alpha virt. eigenvalues --    0.71660   0.72097   0.72346   0.73372   0.75000
 Alpha virt. eigenvalues --    0.76655   0.78763   0.79262   0.80461   0.83160
 Alpha virt. eigenvalues --    0.84147   0.87849   0.88079   0.89182   0.92227
 Alpha virt. eigenvalues --    0.92577   0.96392   0.97375   0.98245   0.99905
 Alpha virt. eigenvalues --    1.00444   1.02426   1.02591   1.02687   1.03427
 Alpha virt. eigenvalues --    1.04777   1.08529   1.08922   1.10536   1.10968
 Alpha virt. eigenvalues --    1.12633   1.14030   1.15690   1.16885   1.18779
 Alpha virt. eigenvalues --    1.19298   1.21380   1.22754   1.25357   1.26397
 Alpha virt. eigenvalues --    1.26450   1.28039   1.29593   1.31638   1.35191
 Alpha virt. eigenvalues --    1.36969   1.38058   1.38529   1.39830   1.44078
 Alpha virt. eigenvalues --    1.46742   1.49443   1.50036   1.51696   1.53777
 Alpha virt. eigenvalues --    1.54570   1.55122   1.56911   1.57307   1.58036
 Alpha virt. eigenvalues --    1.59067   1.59118   1.59465   1.59965   1.61344
 Alpha virt. eigenvalues --    1.61971   1.62628   1.63143   1.63502   1.63729
 Alpha virt. eigenvalues --    1.64082   1.64216   1.66995   1.67574   1.70128
 Alpha virt. eigenvalues --    1.70201   1.71362   1.74392   1.78450   1.78601
 Alpha virt. eigenvalues --    1.79098   1.80841   1.82643   1.85464   1.86093
 Alpha virt. eigenvalues --    1.89772   1.93731   1.94319   1.95608   1.95961
 Alpha virt. eigenvalues --    1.97437   2.00908   2.01512   2.02264   2.03742
 Alpha virt. eigenvalues --    2.04602   2.04850   2.06119   2.09138   2.10160
 Alpha virt. eigenvalues --    2.11474   2.13890   2.15818   2.18163   2.19965
 Alpha virt. eigenvalues --    2.21218   2.21400   2.24602   2.25141   2.27244
 Alpha virt. eigenvalues --    2.29663   2.29744   2.32324   2.34653   2.35975
 Alpha virt. eigenvalues --    2.36813   2.37864   2.37888   2.38804   2.39725
 Alpha virt. eigenvalues --    2.39801   2.42095   2.42713   2.45736   2.46241
 Alpha virt. eigenvalues --    2.48581   2.50210   2.50621   2.52996   2.53703
 Alpha virt. eigenvalues --    2.54216   2.55418   2.56390   2.58026   2.58565
 Alpha virt. eigenvalues --    2.59943   2.60003   2.60596   2.61151   2.62632
 Alpha virt. eigenvalues --    2.64765   2.65935   2.70431   2.71592   2.73156
 Alpha virt. eigenvalues --    2.73772   2.75604   2.76196   2.77216   2.80079
 Alpha virt. eigenvalues --    2.80202   2.80967   2.82368   2.85197   2.87109
 Alpha virt. eigenvalues --    2.88517   2.88835   2.89252   2.90986   2.91731
 Alpha virt. eigenvalues --    2.95119   2.95572   2.95698   2.97301   3.00136
 Alpha virt. eigenvalues --    3.00694   3.01494   3.01730   3.04558   3.04726
 Alpha virt. eigenvalues --    3.05474   3.07563   3.09637   3.11216   3.11735
 Alpha virt. eigenvalues --    3.12111   3.13123   3.13814   3.13954   3.16864
 Alpha virt. eigenvalues --    3.17103   3.17668   3.18298   3.18542   3.20777
 Alpha virt. eigenvalues --    3.22788   3.24079   3.24410   3.26113   3.26775
 Alpha virt. eigenvalues --    3.29196   3.29425   3.29809   3.30654   3.32818
 Alpha virt. eigenvalues --    3.32889   3.33647   3.34286   3.34454   3.35053
 Alpha virt. eigenvalues --    3.35905   3.35938   3.38693   3.39386   3.42914
 Alpha virt. eigenvalues --    3.43706   3.44752   3.45817   3.49233   3.50204
 Alpha virt. eigenvalues --    3.53294   3.54354   3.54696   3.56292   3.58555
 Alpha virt. eigenvalues --    3.59412   3.63166   3.65734   3.65774   3.67110
 Alpha virt. eigenvalues --    3.67119   3.71475   3.73182   3.75820   3.76107
 Alpha virt. eigenvalues --    3.80360   3.81153   3.81333   3.85591   3.87140
 Alpha virt. eigenvalues --    3.89510   3.91460   3.95032   3.97101   3.97280
 Alpha virt. eigenvalues --    3.97699   4.01032   4.02225   4.04034   4.06532
 Alpha virt. eigenvalues --    4.10684   4.16834   4.20982   4.21644   4.22918
 Alpha virt. eigenvalues --    4.26546   4.28131   4.30967   4.34173   4.35113
 Alpha virt. eigenvalues --    4.37023   4.37097   4.37834   4.40098   4.42472
 Alpha virt. eigenvalues --    4.44120   4.45081   4.49135   4.51813   4.51824
 Alpha virt. eigenvalues --    4.59041   4.59113   4.61970   4.65513   4.67235
 Alpha virt. eigenvalues --    4.71317   4.83350   4.84309   4.87761   4.89450
 Alpha virt. eigenvalues --    4.97540   5.01233   5.03139   5.10895   5.19089
 Alpha virt. eigenvalues --    5.21252   5.41166   5.47395  22.35149  22.43193
 Alpha virt. eigenvalues --   22.49625  22.54311  22.58934  22.61172  22.76794
 Alpha virt. eigenvalues --   22.89367  23.12517  23.20334
          Condensed to atoms (all electrons):
               1          2          3          4          5          6
     1  C    5.102479   0.274949  -0.070470   0.014043  -0.000501   0.000045
     2  C    0.274949   5.173849   0.593265  -0.079897   0.001943  -0.001917
     3  C   -0.070470   0.593265   5.200857   0.310737  -0.068732   0.000091
     4  C    0.014043  -0.079897   0.310737   5.098482   0.517477  -0.027675
     5  C   -0.000501   0.001943  -0.068732   0.517477   5.310717   0.228002
     6  C    0.000045  -0.001917   0.000091  -0.027675   0.228002   5.248389
     7  C    0.000000   0.000079  -0.001197   0.002861  -0.121899   0.587477
     8  C    0.000000   0.000002   0.000100  -0.001581   0.017178  -0.028418
     9  C   -0.066496   0.260481  -0.080572  -0.001536   0.009038  -0.000762
    10  C    0.000002   0.000031  -0.003753   0.021564  -0.091137   0.205042
    11  H    0.410832  -0.041674  -0.000237  -0.000870   0.000048  -0.000002
    12  H    0.410804  -0.041665  -0.000246  -0.000872   0.000048  -0.000002
    13  H    0.425486  -0.061508   0.002305   0.003063  -0.000245   0.000018
    14  H   -0.009988  -0.021836   0.396730  -0.033518   0.007042   0.000318
    15  H   -0.000048   0.004623  -0.043742   0.398568  -0.005438  -0.013856
    16  H    0.000000   0.002784  -0.003808  -0.031077   0.412142  -0.047830
    17  H   -0.000000   0.000033   0.000065   0.000431   0.005002  -0.066215
    18  H   -0.000000   0.000000   0.000014  -0.000184   0.003478   0.023874
    19  H   -0.000000  -0.000000  -0.000005   0.000081  -0.001407  -0.004347
    20  H   -0.000000  -0.000000  -0.000005   0.000081  -0.001407  -0.004231
    21  H    0.006660  -0.038437  -0.021931   0.002298   0.005532  -0.000524
    22  H   -0.005849  -0.047972   0.006458  -0.001622  -0.000282   0.000015
    23  H   -0.005861  -0.048019   0.006517  -0.001627  -0.000281   0.000015
    24  H    0.000001  -0.000170   0.000203   0.003336  -0.013347  -0.041070
    25  H    0.000000   0.000008   0.000039  -0.002678   0.019780  -0.047399
    26  H    0.000001  -0.000170   0.000207   0.003362  -0.013395  -0.040998
               7          8          9         10         11         12
     1  C    0.000000   0.000000  -0.066496   0.000002   0.410832   0.410804
     2  C    0.000079   0.000002   0.260481   0.000031  -0.041674  -0.041665
     3  C   -0.001197   0.000100  -0.080572  -0.003753  -0.000237  -0.000246
     4  C    0.002861  -0.001581  -0.001536   0.021564  -0.000870  -0.000872
     5  C   -0.121899   0.017178   0.009038  -0.091137   0.000048   0.000048
     6  C    0.587477  -0.028418  -0.000762   0.205042  -0.000002  -0.000002
     7  C    5.223299   0.212159   0.000019  -0.029220  -0.000000  -0.000000
     8  C    0.212159   5.076191   0.000001  -0.021490  -0.000000  -0.000000
     9  C    0.000019   0.000001   5.117700  -0.000042  -0.004535  -0.004507
    10  C   -0.029220  -0.021490  -0.000042   5.197617  -0.000000  -0.000000
    11  H   -0.000000  -0.000000  -0.004535  -0.000000   0.526290  -0.037724
    12  H   -0.000000  -0.000000  -0.004507  -0.000000  -0.037724   0.526315
    13  H   -0.000001  -0.000000   0.006951   0.000001  -0.022265  -0.022267
    14  H    0.000045   0.000000   0.004601   0.000280   0.000292   0.000293
    15  H    0.000961  -0.000028  -0.003392   0.003529  -0.000001  -0.000001
    16  H    0.005594   0.000354   0.000093   0.004719  -0.000001  -0.000001
    17  H    0.421289  -0.023485   0.000000   0.005201  -0.000000  -0.000000
    18  H   -0.089381   0.445485   0.000000  -0.008926  -0.000000  -0.000000
    19  H   -0.036090   0.408788  -0.000000   0.000881   0.000000  -0.000000
    20  H   -0.036223   0.408886  -0.000000   0.000876  -0.000000   0.000000
    21  H    0.000019   0.000001   0.424714   0.000503  -0.000077  -0.000076
    22  H   -0.000001  -0.000000   0.414867  -0.000007  -0.001172   0.004349
    23  H   -0.000001  -0.000000   0.414901  -0.000007   0.004351  -0.001177
    24  H   -0.002177   0.000491   0.000001   0.423303   0.000000  -0.000000
    25  H   -0.013488  -0.001993   0.000005   0.420453  -0.000000  -0.000000
    26  H   -0.002212   0.000496   0.000001   0.423262  -0.000000   0.000000
              13         14         15         16         17         18
     1  C    0.425486  -0.009988  -0.000048   0.000000  -0.000000  -0.000000
     2  C   -0.061508  -0.021836   0.004623   0.002784   0.000033   0.000000
     3  C    0.002305   0.396730  -0.043742  -0.003808   0.000065   0.000014
     4  C    0.003063  -0.033518   0.398568  -0.031077   0.000431  -0.000184
     5  C   -0.000245   0.007042  -0.005438   0.412142   0.005002   0.003478
     6  C    0.000018   0.000318  -0.013856  -0.047830  -0.066215   0.023874
     7  C   -0.000001   0.000045   0.000961   0.005594   0.421289  -0.089381
     8  C   -0.000000   0.000000  -0.000028   0.000354  -0.023485   0.445485
     9  C    0.006951   0.004601  -0.003392   0.000093   0.000000   0.000000
    10  C    0.000001   0.000280   0.003529   0.004719   0.005201  -0.008926
    11  H   -0.022265   0.000292  -0.000001  -0.000001  -0.000000  -0.000000
    12  H   -0.022267   0.000293  -0.000001  -0.000001  -0.000000  -0.000000
    13  H    0.510266   0.001506   0.000033   0.000031   0.000000   0.000000
    14  H    0.001506   0.478980   0.002596   0.004776   0.000045  -0.000000
    15  H    0.000033   0.002596   0.475285   0.003959   0.000073  -0.000007
    16  H    0.000031   0.004776   0.003959   0.475742   0.005715   0.000051
    17  H    0.000000   0.000045   0.000073   0.005715   0.487702   0.003163
    18  H    0.000000  -0.000000  -0.000007   0.000051   0.003163   0.514858
    19  H   -0.000000  -0.000000   0.000001  -0.000047  -0.002203  -0.024400
    20  H   -0.000000  -0.000000   0.000001  -0.000047  -0.002238  -0.024423
    21  H   -0.000215  -0.000047  -0.001935   0.000022  -0.000000  -0.000000
    22  H   -0.000080  -0.000119   0.000112  -0.000003  -0.000000  -0.000000
    23  H   -0.000079  -0.000118   0.000114  -0.000003  -0.000000  -0.000000
    24  H   -0.000000  -0.000023  -0.004978  -0.000221  -0.000195  -0.000080
    25  H    0.000000   0.000001   0.000754  -0.000025   0.000124   0.002963
    26  H   -0.000000  -0.000023  -0.004980  -0.000221  -0.000196  -0.000081
              19         20         21         22         23         24
     1  C   -0.000000  -0.000000   0.006660  -0.005849  -0.005861   0.000001
     2  C   -0.000000  -0.000000  -0.038437  -0.047972  -0.048019  -0.000170
     3  C   -0.000005  -0.000005  -0.021931   0.006458   0.006517   0.000203
     4  C    0.000081   0.000081   0.002298  -0.001622  -0.001627   0.003336
     5  C   -0.001407  -0.001407   0.005532  -0.000282  -0.000281  -0.013347
     6  C   -0.004347  -0.004231  -0.000524   0.000015   0.000015  -0.041070
     7  C   -0.036090  -0.036223   0.000019  -0.000001  -0.000001  -0.002177
     8  C    0.408788   0.408886   0.000001  -0.000000  -0.000000   0.000491
     9  C   -0.000000  -0.000000   0.424714   0.414867   0.414901   0.000001
    10  C    0.000881   0.000876   0.000503  -0.000007  -0.000007   0.423303
    11  H    0.000000  -0.000000  -0.000077  -0.001172   0.004351   0.000000
    12  H   -0.000000   0.000000  -0.000076   0.004349  -0.001177  -0.000000
    13  H   -0.000000  -0.000000  -0.000215  -0.000080  -0.000079  -0.000000
    14  H   -0.000000  -0.000000  -0.000047  -0.000119  -0.000118  -0.000023
    15  H    0.000001   0.000001  -0.001935   0.000112   0.000114  -0.004978
    16  H   -0.000047  -0.000047   0.000022  -0.000003  -0.000003  -0.000221
    17  H   -0.002203  -0.002238  -0.000000  -0.000000  -0.000000  -0.000195
    18  H   -0.024400  -0.024423  -0.000000  -0.000000  -0.000000  -0.000080
    19  H    0.523105  -0.032406  -0.000000  -0.000000   0.000000   0.000347
    20  H   -0.032406   0.523109  -0.000000   0.000000  -0.000000  -0.000187
    21  H   -0.000000  -0.000000   0.515804  -0.023265  -0.023281   0.000107
    22  H   -0.000000   0.000000  -0.023265   0.519899  -0.035728  -0.000005
    23  H    0.000000  -0.000000  -0.023281  -0.035728   0.519914   0.000012
    24  H    0.000347  -0.000187   0.000107  -0.000005   0.000012   0.514341
    25  H   -0.000049  -0.000045  -0.000005  -0.000000  -0.000000  -0.019997
    26  H   -0.000188   0.000346   0.000107   0.000012  -0.000005  -0.038862
              25         26
     1  C    0.000000   0.000001
     2  C    0.000008  -0.000170
     3  C    0.000039   0.000207
     4  C   -0.002678   0.003362
     5  C    0.019780  -0.013395
     6  C   -0.047399  -0.040998
     7  C   -0.013488  -0.002212
     8  C   -0.001993   0.000496
     9  C    0.000005   0.000001
    10  C    0.420453   0.423262
    11  H   -0.000000  -0.000000
    12  H   -0.000000   0.000000
    13  H    0.000000  -0.000000
    14  H    0.000001  -0.000023
    15  H    0.000754  -0.004980
    16  H   -0.000025  -0.000221
    17  H    0.000124  -0.000196
    18  H    0.002963  -0.000081
    19  H   -0.000049  -0.000188
    20  H   -0.000045   0.000346
    21  H   -0.000005   0.000107
    22  H   -0.000000   0.000012
    23  H   -0.000000  -0.000005
    24  H   -0.019997  -0.038862
    25  H    0.505845  -0.019996
    26  H   -0.019996   0.514387
 Mulliken charges:
               1
     1  C   -0.486087
     2  C    0.071217
     3  C   -0.222887
     4  C   -0.193247
     5  C   -0.219356
     6  C    0.031960
     7  C   -0.121912
     8  C   -0.493137
     9  C   -0.491533
    10  C   -0.552685
    11  H    0.166745
    12  H    0.166729
    13  H    0.157000
    14  H    0.168163
    15  H    0.187795
    16  H    0.167300
    17  H    0.165688
    18  H    0.153595
    19  H    0.167940
    20  H    0.167914
    21  H    0.154026
    22  H    0.170392
    23  H    0.170363
    24  H    0.179172
    25  H    0.155700
    26  H    0.179147
 Sum of Mulliken charges =  -0.00000
 Mulliken charges with hydrogens summed into heavy atoms:
               1
     1  C    0.004386
     2  C    0.071217
     3  C   -0.054724
     4  C   -0.005453
     5  C   -0.052056
     6  C    0.031960
     7  C    0.043776
     8  C   -0.003688
     9  C    0.003248
    10  C   -0.038667
 Electronic spatial extent (au):  <R**2>=           2879.2130
 Charge=             -0.0000 electrons
 Dipole moment (field-independent basis, Debye):
    X=              0.1292    Y=              0.5675    Z=              0.0002  Tot=              0.5821
 Quadrupole moment (field-independent basis, Debye-Ang):
   XX=            -51.8649   YY=            -59.2248   ZZ=            -68.1442
   XY=              1.1188   XZ=              0.0012   YZ=              0.0003
 Traceless Quadrupole moment (field-independent basis, Debye-Ang):
   XX=              7.8798   YY=              0.5199   ZZ=             -8.3996
   XY=              1.1188   XZ=              0.0012   YZ=              0.0003
 Octapole moment (field-independent basis, Debye-Ang**2):
  XXX=             -1.4525  YYY=             -3.4543  ZZZ=              0.0013  XYY=             -2.2322
  XXY=              0.3605  XXZ=              0.0042  XZZ=              2.4706  YZZ=              3.1911
  YYZ=              0.0014  XYZ=              0.0043
 Hexadecapole moment (field-independent basis, Debye-Ang**3):
 XXXX=          -3212.1116 YYYY=           -443.2675 ZZZZ=           -106.9389 XXXY=             25.0579
 XXXZ=             -0.0054 YYYX=             -1.2371 YYYZ=              0.0012 ZZZX=              0.0239
 ZZZY=              0.0001 XXYY=           -630.5693 XXZZ=           -595.1042 YYZZ=            -94.7888
 XXYZ=             -0.0121 YYXZ=             -0.0163 ZZXY=              5.9838
 N-N= 4.785987318692D+02 E-N=-1.861556272603D+03  KE= 3.882866063616D+02
 Unable to Open any file for archive entry.
 1\1\GINC-CN01\SP\RM062X TD-FC\def2TZVP\C10H16\2100011873\04-Nov-2023\0
 \\# td=(nstates=50) M062X/def2TZVP scrf(smd, solvent=ethanol)\\B-2\\0,
 1\C,0,4.186043,-0.985243,-0.000113\C,0,2.965678,-0.099955,0.000017\C,0
 ,1.724259,-0.63647,-0.000213\C,0,0.452578,0.059668,-0.000179\C,0,-0.74
 1079,-0.579413,-0.000205\C,0,-2.064372,0.040415,-0.000137\C,0,-3.15287
 8,-0.763225,0.000253\C,0,-4.604173,-0.385851,0.000427\C,0,3.260391,1.3
 78273,0.000567\C,0,-2.133175,1.550261,-0.000541\H,0,4.817179,-0.791217
 ,-0.879673\H,0,4.817098,-0.791647,0.879598\H,0,3.922096,-2.047445,-0.0
 00374\H,0,1.652379,-1.72528,-0.000493\H,0,0.469127,1.146468,-0.000113\
 H,0,-0.735417,-1.670538,-0.000304\H,0,-2.968126,-1.838635,0.00044\H,0,
 -4.773466,0.693748,0.001475\H,0,-5.114894,-0.80271,-0.879231\H,0,-5.11
 5042,-0.80447,0.879137\H,0,2.363003,2.000757,0.000075\H,0,3.859006,1.6
 53716,0.880554\H,0,3.86032,1.65418,-0.878355\H,0,-1.627265,1.964044,-0
 .882102\H,0,-3.158688,1.923675,-0.000452\H,0,-1.626926,1.964596,0.8805
 67\\Version=ES64L-G16RevC.02\State=1-A\HF=-390.6185691\RMSD=4.696e-09\
 PG=C01 [X(C10H16)]\\@
 The archive entry for this job was punched.


 WE STILL HAVE JUDGEMENT HERE,
 THAT WE TEACH BUT BLOODY INSTRUCTIONS,
 WHICH, BEING TAUGHT,
 RETURN TO PLAGUE THE INVENTOR.
           MACBETH ACT I, SCENE VII
 Job cpu time:       0 days  5 hours 39 minutes 24.7 seconds.
 Elapsed time:       0 days  0 hours 11 minutes  5.3 seconds.
 File lengths (MBytes):  RWF=   3120 Int=      0 D2E=      0 Chk=    256 Scr=     32
 Normal termination of Gaussian 16 at Sat Nov  4 18:48:25 2023.
