 Entering Gaussian System, Link 0=g16
 Initial command:
 /nfs-share/home/2100011873/Gaussian16_AVX2/g16/l1.exe "/nfs-share/home/2100011873/GaussTmp/Gau-88391.inp" -scrdir="/nfs-share/home/2100011873/GaussTmp/"
 Entering Link 1 = /nfs-share/home/2100011873/Gaussian16_AVX2/g16/l1.exe PID=     88392.
  
 Copyright (c) 1988-2021, Gaussian, Inc.  All Rights Reserved.
  
 This is part of the Gaussian(R) 16 program.  It is based on
 the Gaussian(R) 09 system (copyright 2009, Gaussian, Inc.),
 the Gaussian(R) 03 system (copyright 2003, Gaussian, Inc.),
 the Gaussian(R) 98 system (copyright 1998, Gaussian, Inc.),
 the Gaussian(R) 94 system (copyright 1995, Gaussian, Inc.),
 the Gaussian 92(TM) system (copyright 1992, Gaussian, Inc.),
 the Gaussian 90(TM) system (copyright 1990, Gaussian, Inc.),
 the Gaussian 88(TM) system (copyright 1988, Gaussian, Inc.),
 the Gaussian 86(TM) system (copyright 1986, Carnegie Mellon
 University), and the Gaussian 82(TM) system (copyright 1983,
 Carnegie Mellon University). Gaussian is a federally registered
 trademark of Gaussian, Inc.
  
 This software contains proprietary and confidential information,
 including trade secrets, belonging to Gaussian, Inc.
  
 This software is provided under written license and may be
 used, copied, transmitted, or stored only in accord with that
 written license.
  
 The following legend is applicable only to US Government
 contracts under FAR:
  
                    RESTRICTED RIGHTS LEGEND
  
 Use, reproduction and disclosure by the US Government is
 subject to restrictions as set forth in subparagraphs (a)
 and (c) of the Commercial Computer Software - Restricted
 Rights clause in FAR 52.227-19.
  
 Gaussian, Inc.
 340 Quinnipiac St., Bldg. 40, Wallingford CT 06492
  
  
 ---------------------------------------------------------------
 Warning -- This program may not be used in any manner that
 competes with the business of Gaussian, Inc. or will provide
 assistance to any competitor of Gaussian, Inc.  The licensee
 of this program is prohibited from giving any competitor of
 Gaussian, Inc. access to this program.  By using this program,
 the user acknowledges that Gaussian, Inc. is engaged in the
 business of creating and licensing software in the field of
 computational chemistry and represents and warrants to the
 licensee that it is not a competitor of Gaussian, Inc. and that
 it will not use this program in any manner prohibited above.
 ---------------------------------------------------------------
  

 Cite this work as:
 Gaussian 16, Revision C.02,
 M. J. Frisch, G. W. Trucks, H. B. Schlegel, G. E. Scuseria, 
 M. A. Robb, J. R. Cheeseman, G. Scalmani, V. Barone, 
 G. A. Petersson, H. Nakatsuji, X. Li, M. Caricato, A. V. Marenich, 
 J. Bloino, B. G. Janesko, R. Gomperts, B. Mennucci, H. P. Hratchian, 
 J. V. Ortiz, A. F. Izmaylov, J. L. Sonnenberg, D. Williams-Young, 
 F. Ding, F. Lipparini, F. Egidi, J. Goings, B. Peng, A. Petrone, 
 T. Henderson, D. Ranasinghe, V. G. Zakrzewski, J. Gao, N. Rega, 
 G. Zheng, W. Liang, M. Hada, M. Ehara, K. Toyota, R. Fukuda, 
 J. Hasegawa, M. Ishida, T. Nakajima, Y. Honda, O. Kitao, H. Nakai, 
 T. Vreven, K. Throssell, J. A. Montgomery, Jr., J. E. Peralta, 
 F. Ogliaro, M. J. Bearpark, J. J. Heyd, E. N. Brothers, K. N. Kudin, 
 V. N. Staroverov, T. A. Keith, R. Kobayashi, J. Normand, 
 K. Raghavachari, A. P. Rendell, J. C. Burant, S. S. Iyengar, 
 J. Tomasi, M. Cossi, J. M. Millam, M. Klene, C. Adamo, R. Cammi, 
 J. W. Ochterski, R. L. Martin, K. Morokuma, O. Farkas, 
 J. B. Foresman, and D. J. Fox, Gaussian, Inc., Wallingford CT, 2019.
 
 ******************************************
 Gaussian 16:  ES64L-G16RevC.02  7-Dec-2021
                 6-Nov-2023 
 ******************************************
 %nprocshared=32
 Will use up to   32 processors via shared memory.
 %mem=128GB
 ------------------------------------------------------------
 # td=(nstates=150) M062X/def2TZVP scrf(smd, solvent=ethanol)
 ------------------------------------------------------------
 1/38=1,172=1/1;
 2/12=2,17=6,18=5,40=1/2;
 3/5=44,7=101,11=9,25=1,30=1,70=32201,72=4,74=-55/1,2,3,8;
 4//1;
 5/5=2,38=5,53=4/2;
 8/6=1,10=1,108=150/1;
 9/41=150,42=1,70=2/14;
 6/7=2,8=2,9=2,10=2/1;
 99/5=1,9=1/99;
 ---
 B-1
 ---
 Symbolic Z-matrix:
 Charge =  0 Multiplicity = 1
 C                    -13.19325  -1.96518   0.35751 
 C                    -14.15023  -1.3663   -0.66684 
 C                    -14.19793   0.14589  -0.46999 
 C                    -12.83989   0.78112  -0.26594 
 C                    -11.69919   0.06912  -0.02054 
 C                    -11.73425  -1.46329   0.19794 
 C                    -10.43464   0.80864   0.02792 
 C                    -9.1477    0.36849   0.05193 
 C                    -7.97098   1.21881   0.06402 
 C                    -6.73848   0.61877   0.06999 
 C                    -5.44585   1.23802   0.07821 
 C                    -4.28033   0.52598   0.08121 
 C                    -2.9426    1.06363   0.08601 
 C                    -1.88552   0.18504   0.0869 
 C                    -0.48836   0.47987   0.08838 
 C                     0.48836  -0.47988   0.08838 
 C                     1.88552  -0.18505   0.0869 
 C                     2.9426   -1.06364   0.08601 
 C                     4.28033  -0.52598   0.08121 
 C                     5.44585  -1.23802   0.07821 
 C                     6.73848  -0.61878   0.06999 
 C                     7.97098  -1.21882   0.06402 
 C                     9.1477   -0.36849   0.05193 
 C                     10.43464  -0.80864   0.02791 
 C                     11.69919  -0.06911  -0.02054 
 C                     11.73425   1.4633    0.19794 
 C                    -11.0146  -1.85387   1.51323 
 C                    -11.08758  -2.20926  -0.99638 
 C                    -12.87893   2.29364  -0.39889 
 C                     13.19324   1.96519   0.35753 
 C                     14.15024   1.36631  -0.66682 
 C                     14.19793  -0.14588  -0.46997 
 C                     12.83989  -0.78111  -0.26594 
 C                     11.01458   1.85387   1.51322 
 C                     11.08758   2.20926  -0.99639 
 C                     12.87893  -2.29364  -0.39888 
 C                     8.15656  -2.71718   0.0685 
 C                     2.76951  -2.56424   0.08879 
 C                    -2.7695    2.56423   0.08879 
 C                    -8.15656   2.71718   0.0685 
 H                    -13.55224  -1.70444   1.36372 
 H                    -13.19179  -3.06159   0.30296 
 H                    -15.15315  -1.79827  -0.56305 
 H                    -13.81309  -1.59776  -1.68519 
 H                    -14.83673   0.39264   0.39555 
 H                    -14.68517   0.6313   -1.32865 
 H                    -10.55321   1.88625  -0.00013 
 H                    -8.93157  -0.69442   0.04825 
 H                    -6.72719  -0.47229   0.0666 
 H                    -5.39419   2.32333   0.08055 
 H                    -4.35407  -0.56241   0.07851 
 H                    -2.13643  -0.87673   0.08526 
 H                    -0.17247   1.5217    0.08852 
 H                     0.17247  -1.52171   0.08852 
 H                     2.13644   0.87672   0.08527 
 H                     4.35407   0.5624    0.07851 
 H                     5.39419  -2.32334   0.08054 
 H                     6.72719   0.47229   0.06659 
 H                     8.93157   0.69442   0.04824 
 H                     10.55321  -1.88625  -0.00012 
 H                    -11.41656  -1.28058   2.35641 
 H                    -11.18397  -2.91813   1.72001 
 H                    -9.93616  -1.69087   1.48859 
 H                    -10.06227  -1.88498  -1.18781 
 H                    -11.06723  -3.28878  -0.80027 
 H                    -11.65314  -2.04558  -1.91992 
 H                    -13.91376   2.64896  -0.35064 
 H                    -12.32451   2.80958   0.39214 
 H                    -12.46878   2.63324  -1.36008 
 H                     13.19178   3.06159   0.30298 
 H                     13.55222   1.70445   1.36374 
 H                     15.15315   1.79828  -0.56302 
 H                     13.8131   1.59777  -1.68517 
 H                     14.83673  -0.39263   0.39557 
 H                     14.68518  -0.63129  -1.32863 
 H                     11.18393   2.91814   1.72 
 H                     9.93614   1.69087   1.48856 
 H                     11.41653   1.28059   2.3564 
 H                     10.06228   1.88498  -1.18783 
 H                     11.06723   3.28878  -0.80029 
 H                     11.65315   2.04558  -1.91993 
 H                     13.91377  -2.64895  -0.35064 
 H                     12.32452  -2.80958   0.39214 
 H                     12.46878  -2.63323  -1.36007 
 H                     8.74409  -3.03646   0.93873 
 H                     7.20915  -3.25795   0.09305 
 H                     8.70422  -3.04723  -0.82368 
 H                     3.24804  -3.01107   0.96953 
 H                     1.72147  -2.86803   0.09271 
 H                     3.24239  -3.01383  -0.79361 
 H                    -3.2424    3.01383  -0.7936 
 H                    -3.24802   3.01106   0.96955 
 H                    -1.72147   2.86802   0.09269 
 H                    -7.20914   3.25794   0.09306 
 H                    -8.70421   3.04723  -0.82368 
 H                    -8.74409   3.03646   0.93873 
 
 Stoichiometry    C40H56
 Framework group  C1[X(C40H56)]
 Deg. of freedom   282
 Full point group                 C1      NOp   1
 Largest Abelian subgroup         C1      NOp   1
 Largest concise Abelian subgroup C1      NOp   1
                         Standard orientation:                         
 ---------------------------------------------------------------------
 Center     Atomic      Atomic             Coordinates (Angstroms)
 Number     Number       Type             X           Y           Z
 ---------------------------------------------------------------------
      1          6           0       13.193247    1.965180    0.357514
      2          6           0       14.150234    1.366297   -0.666837
      3          6           0       14.197930   -0.145886   -0.469985
      4          6           0       12.839886   -0.781119   -0.265942
      5          6           0       11.699193   -0.069117   -0.020535
      6          6           0       11.734254    1.463294    0.197940
      7          6           0       10.434640   -0.808638    0.027915
      8          6           0        9.147698   -0.368486    0.051934
      9          6           0        7.970978   -1.218813    0.064023
     10          6           0        6.738479   -0.618773    0.069992
     11          6           0        5.445845   -1.238015    0.078209
     12          6           0        4.280328   -0.525977    0.081210
     13          6           0        2.942601   -1.063627    0.086009
     14          6           0        1.885522   -0.185039    0.086900
     15          6           0        0.488362   -0.479870    0.088382
     16          6           0       -0.488364    0.479879    0.088381
     17          6           0       -1.885523    0.185049    0.086901
     18          6           0       -2.942603    1.063636    0.086010
     19          6           0       -4.280330    0.525984    0.081210
     20          6           0       -5.445847    1.238022    0.078205
     21          6           0       -6.738480    0.618778    0.069986
     22          6           0       -7.970980    1.218816    0.064016
     23          6           0       -9.147699    0.368486    0.051926
     24          6           0      -10.434641    0.808636    0.027911
     25          6           0      -11.699193    0.069112   -0.020539
     26          6           0      -11.734248   -1.463299    0.197935
     27          6           0       11.014600    1.853868    1.513234
     28          6           0       11.087577    2.209256   -0.996377
     29          6           0       12.878927   -2.293643   -0.398885
     30          6           0      -13.193238   -1.965187    0.357525
     31          6           0      -14.150237   -1.366308   -0.666817
     32          6           0      -14.197934    0.145875   -0.469969
     33          6           0      -12.839889    0.781111   -0.265939
     34          6           0      -11.014576   -1.853870    1.513220
     35          6           0      -11.087582   -2.209257   -0.996389
     36          6           0      -12.878932    2.293635   -0.398883
     37          6           0       -8.156563    2.717180    0.068498
     38          6           0       -2.769507    2.564242    0.088788
     39          6           0        2.769504   -2.564233    0.088790
     40          6           0        8.156557   -2.717177    0.068503
     41          1           0       13.552240    1.704444    1.363722
     42          1           0       13.191791    3.061587    0.302962
     43          1           0       15.153148    1.798268   -0.563053
     44          1           0       13.813091    1.597755   -1.685187
     45          1           0       14.836732   -0.392637    0.395545
     46          1           0       14.685170   -0.631298   -1.328645
     47          1           0       10.553209   -1.886254   -0.000126
     48          1           0        8.931571    0.694424    0.048253
     49          1           0        6.727188    0.472294    0.066595
     50          1           0        5.394190   -2.323329    0.080545
     51          1           0        4.354073    0.562407    0.078511
     52          1           0        2.136434    0.876729    0.085263
     53          1           0        0.172471   -1.521700    0.088524
     54          1           0       -0.172472    1.521709    0.088521
     55          1           0       -2.136435   -0.876720    0.085267
     56          1           0       -4.354074   -0.562400    0.078514
     57          1           0       -5.394193    2.323335    0.080538
     58          1           0       -6.727188   -0.472289    0.066588
     59          1           0       -8.931568   -0.694423    0.048240
     60          1           0      -10.553213    1.886252   -0.000123
     61          1           0       11.416560    1.280584    2.356412
     62          1           0       11.183965    2.918133    1.720013
     63          1           0        9.936160    1.690871    1.488587
     64          1           0       10.062275    1.884980   -1.187807
     65          1           0       11.067226    3.288779   -0.800274
     66          1           0       11.653135    2.045583   -1.919919
     67          1           0       13.913764   -2.648960   -0.350635
     68          1           0       12.324510   -2.809583    0.392139
     69          1           0       12.468777   -2.633235   -1.360075
     70          1           0      -13.191780   -3.061594    0.302976
     71          1           0      -13.552222   -1.704450    1.363737
     72          1           0      -15.153149   -1.798281   -0.563022
     73          1           0      -13.813104   -1.597768   -1.685170
     74          1           0      -14.836727    0.392627    0.395567
     75          1           0      -14.685183    0.631285   -1.328625
     76          1           0      -11.183932   -2.918136    1.719999
     77          1           0       -9.936137   -1.690867    1.488558
     78          1           0      -11.416527   -1.280589    2.356403
     79          1           0      -10.062283   -1.884978   -1.187830
     80          1           0      -11.067226   -3.288781   -0.800288
     81          1           0      -11.653150   -2.045585   -1.919926
     82          1           0      -13.913771    2.648951   -0.350639
     83          1           0      -12.324521    2.809577    0.392144
     84          1           0      -12.468777    2.633229   -1.360071
     85          1           0       -8.744087    3.036457    0.938730
     86          1           0       -7.209146    3.257946    0.093047
     87          1           0       -8.704221    3.047232   -0.823677
     88          1           0       -3.248036    3.011075    0.969534
     89          1           0       -1.721470    2.868026    0.092705
     90          1           0       -3.242385    3.013831   -0.793611
     91          1           0        3.242396   -3.013825   -0.793600
     92          1           0        3.248019   -3.011063    0.969546
     93          1           0        1.721466   -2.868016    0.092692
     94          1           0        7.209140   -3.257941    0.093061
     95          1           0        8.704208   -3.047230   -0.823677
     96          1           0        8.744089   -3.036455    0.938730
 ---------------------------------------------------------------------
 Rotational constants (GHZ):           0.3478418           0.0099525           0.0097368
 Standard basis: def2TZVP (5D, 7F)
 There are  1776 symmetry adapted cartesian basis functions of A   symmetry.
 There are  1576 symmetry adapted basis functions of A   symmetry.
  1576 basis functions,  2488 primitive gaussians,  1776 cartesian basis functions
   148 alpha electrons      148 beta electrons
       nuclear repulsion energy      3637.1617565307 Hartrees.
 NAtoms=   96 NActive=   96 NUniq=   96 SFac= 1.00D+00 NAtFMM=   60 NAOKFM=T Big=T
 Integral buffers will be    131072 words long.
 Regular integral format.
 Two-electron integral symmetry is turned on.
 ------------------------------------------------------------------------------
 Polarizable Continuum Model (PCM)
 =================================
 Model                : PCM.
 Atomic radii         : SMD-Coulomb.
 Polarization charges : Total charges.
 Charge compensation  : None.
 Solution method      : On-the-fly selection.
 Cavity type          : VdW (van der Waals Surface) (Alpha=1.000).
 Cavity algorithm     : GePol (No added spheres)
                        Default sphere list used, NSphG=   96.
                        Lebedev-Laikov grids with approx.  5.0 points / Ang**2.
                        Smoothing algorithm: York/Karplus (Gamma=1.0000).
                        Polarization charges: spherical gaussians, with
                                              point-specific exponents (IZeta= 3).
                        Self-potential: point-specific (ISelfS= 7).
                        Self-field    : sphere-specific E.n sum rule (ISelfD= 2).
 Solvent              : Ethanol, Eps=  24.852000 Eps(inf)=   1.852593
 ------------------------------------------------------------------------------
 ------------------------------------------------------------------------------
 Atomic radii for non-electrostatic terms: SMD-CDS.
 ------------------------------------------------------------------------------
 Nuclear repulsion after PCM non-electrostatic terms =     3637.1521877144 Hartrees.
 One-electron integrals computed using PRISM.
   1 Symmetry operations used in ECPInt.
 ECPInt:  NShTT=  220780 NPrTT=  646864 LenC2=  101855 LenP2D=  205935.
 LDataN:  DoStor=T MaxTD1= 6 Len=  172
 NBasis=  1576 RedAO= T EigKep=  1.02D-05  NBF=  1576
 NBsUse=  1576 1.00D-06 EigRej= -1.00D+00 NBFU=  1576
 ExpMin= 9.52D-02 ExpMax= 1.36D+04 ExpMxC= 4.63D+02 IAcc=3 IRadAn=         5 AccDes= 0.00D+00
 Harris functional with IExCor= 1009 and IRadAn=       5 diagonalized for initial guess.
 HarFok:  IExCor= 1009 AccDes= 0.00D+00 IRadAn=         5 IDoV= 1 UseB2=F ITyADJ=14
 ICtDFT=  3500011 ScaDFX=  1.000000  1.000000  1.000000  1.000000
 FoFCou: FMM=F IPFlag=           0 FMFlag=      100000 FMFlg1=        2001
         NFxFlg=           0 DoJE=T BraDBF=F KetDBF=T FulRan=T
         wScrn=  0.000000 ICntrl=       500 IOpCl=  0 I1Cent=   200000004 NGrid=           0
         NMat0=    1 NMatS0=      1 NMatT0=    0 NMatD0=    1 NMtDS0=    0 NMtDT0=    0
 Petite list used in FoFCou.
 Requested convergence on RMS density matrix=1.00D-08 within 128 cycles.
 Requested convergence on MAX density matrix=1.00D-06.
 Requested convergence on             energy=1.00D-06.
 No special actions if energy rises.
 Inv3:  Mode=1 IEnd=   125194800.
 Iteration    1 A*A^-1 deviation from unit magnitude is 3.44D-15 for   2913.
 Iteration    1 A*A^-1 deviation from orthogonality  is 3.33D-15 for   5685    374.
 Iteration    1 A^-1*A deviation from unit magnitude is 3.11D-15 for   3227.
 Iteration    1 A^-1*A deviation from orthogonality  is 4.22D-15 for   4759   1478.
 Error on total polarization charges =  0.12100
 SCF Done:  E(RM062X) =  -1557.73970981     A.U. after   12 cycles
            NFock= 12  Conv=0.98D-08     -V/T= 2.0060
 SMD-CDS (non-electrostatic) energy       (kcal/mol) =      -6.00
 (included in total energy above)
 DoSCS=F DFT=T ScalE2(SS,OS)=  1.000000  1.000000
 ExpMin= 9.52D-02 ExpMax= 1.36D+04 ExpMxC= 4.63D+02 IAcc=3 IRadAn=         5 AccDes= 0.00D+00
 HarFok:  IExCor=  205 AccDes= 0.00D+00 IRadAn=         5 IDoV=-2 UseB2=F ITyADJ=14
 ICtDFT= 12500011 ScaDFX=  1.000000  1.000000  1.000000  1.000000
 GSVD:  LWork=       -1920 too small for GESVD, short by        8600 words or        8600 for optimal perf.
 Range of M.O.s used for correlation:    41  1576
 NBasis=  1576 NAE=   148 NBE=   148 NFC=    40 NFV=     0
 NROrb=   1536 NOA=   108 NOB=   108 NVA=  1428 NVB=  1428

 **** Warning!!: The largest alpha MO coefficient is  0.27189147D+02

 NEqPCM:  Using non-equilibrium solvation (IEInf=1, Eps=  24.8520, EpsInf=   1.8526)
 Inv3:  Mode=1 IEnd=   125194800.
 Iteration    1 A*A^-1 deviation from unit magnitude is 3.77D-15 for   5055.
 Iteration    1 A*A^-1 deviation from orthogonality  is 1.99D-15 for   4777   1517.
 Iteration    1 A^-1*A deviation from unit magnitude is 3.77D-15 for   5055.
 Iteration    1 A^-1*A deviation from orthogonality  is 1.97D-15 for   4076   2226.
 Orbital symmetries:
       Occupied  (A) (A) (A) (A) (A) (A) (A) (A) (A) (A) (A) (A)
                 (A) (A) (A) (A) (A) (A) (A) (A) (A) (A) (A) (A)
                 (A) (A) (A) (A) (A) (A) (A) (A) (A) (A) (A) (A)
                 (A) (A) (A) (A) (A) (A) (A) (A) (A) (A) (A) (A)
                 (A) (A) (A) (A) (A) (A) (A) (A) (A) (A) (A) (A)
                 (A) (A) (A) (A) (A) (A) (A) (A) (A) (A) (A) (A)
                 (A) (A) (A) (A) (A) (A) (A) (A) (A) (A) (A) (A)
                 (A) (A) (A) (A) (A) (A) (A) (A) (A) (A) (A) (A)
                 (A) (A) (A) (A) (A) (A) (A) (A) (A) (A) (A) (A)
                 (A) (A) (A) (A) (A) (A) (A) (A) (A) (A) (A) (A)
                 (A) (A) (A) (A) (A) (A) (A) (A) (A) (A) (A) (A)
                 (A) (A) (A) (A) (A) (A) (A) (A) (A) (A) (A) (A)
                 (A) (A) (A) (A)
       Virtual   (A) (A) (A) (A) (A) (A) (A) (A) (A) (A) (A) (A)
                 (A) (A) (A) (A) (A) (A) (A) (A) (A) (A) (A) (A)
                 (A) (A) (A) (A) (A) (A) (A) (A) (A) (A) (A) (A)
                 (A) (A) (A) (A) (A) (A) (A) (A) (A) (A) (A) (A)
                 (A) (A) (A) (A) (A) (A) (A) (A) (A) (A) (A) (A)
                 (A) (A) (A) (A) (A) (A) (A) (A) (A) (A) (A) (A)
                 (A) (A) (A) (A) (A) (A) (A) (A) (A) (A) (A) (A)
                 (A) (A) (A) (A) (A) (A) (A) (A) (A) (A) (A) (A)
                 (A) (A) (A) (A) (A) (A) (A) (A) (A) (A) (A) (A)
                 (A) (A) (A) (A) (A) (A) (A) (A) (A) (A) (A) (A)
                 (A) (A) (A) (A) (A) (A) (A) (A) (A) (A) (A) (A)
                 (A) (A) (A) (A) (A) (A) (A) (A) (A) (A) (A) (A)
                 (A) (A) (A) (A) (A) (A) (A) (A) (A) (A) (A) (A)
                 (A) (A) (A) (A) (A) (A) (A) (A) (A) (A) (A) (A)
                 (A) (A) (A) (A) (A) (A) (A) (A) (A) (A) (A) (A)
                 (A) (A) (A) (A) (A) (A) (A) (A) (A) (A) (A) (A)
                 (A) (A) (A) (A) (A) (A) (A) (A) (A) (A) (A) (A)
                 (A) (A) (A) (A) (A) (A) (A) (A) (A) (A) (A) (A)
                 (A) (A) (A) (A) (A) (A) (A) (A) (A) (A) (A) (A)
                 (A) (A) (A) (A) (A) (A) (A) (A) (A) (A) (A) (A)
                 (A) (A) (A) (A) (A) (A) (A) (A) (A) (A) (A) (A)
                 (A) (A) (A) (A) (A) (A) (A) (A) (A) (A) (A) (A)
                 (A) (A) (A) (A) (A) (A) (A) (A) (A) (A) (A) (A)
                 (A) (A) (A) (A) (A) (A) (A) (A) (A) (A) (A) (A)
                 (A) (A) (A) (A) (A) (A) (A) (A) (A) (A) (A) (A)
                 (A) (A) (A) (A) (A) (A) (A) (A) (A) (A) (A) (A)
                 (A) (A) (A) (A) (A) (A) (A) (A) (A) (A) (A) (A)
                 (A) (A) (A) (A) (A) (A) (A) (A) (A) (A) (A) (A)
                 (A) (A) (A) (A) (A) (A) (A) (A) (A) (A) (A) (A)
                 (A) (A) (A) (A) (A) (A) (A) (A) (A) (A) (A) (A)
                 (A) (A) (A) (A) (A) (A) (A) (A) (A) (A) (A) (A)
                 (A) (A) (A) (A) (A) (A) (A) (A) (A) (A) (A) (A)
                 (A) (A) (A) (A) (A) (A) (A) (A) (A) (A) (A) (A)
                 (A) (A) (A) (A) (A) (A) (A) (A) (A) (A) (A) (A)
                 (A) (A) (A) (A) (A) (A) (A) (A) (A) (A) (A) (A)
                 (A) (A) (A) (A) (A) (A) (A) (A) (A) (A) (A) (A)
                 (A) (A) (A) (A) (A) (A) (A) (A) (A) (A) (A) (A)
                 (A) (A) (A) (A) (A) (A) (A) (A) (A) (A) (A) (A)
                 (A) (A) (A) (A) (A) (A) (A) (A) (A) (A) (A) (A)
                 (A) (A) (A) (A) (A) (A) (A) (A) (A) (A) (A) (A)
                 (A) (A) (A) (A) (A) (A) (A) (A) (A) (A) (A) (A)
                 (A) (A) (A) (A) (A) (A) (A) (A) (A) (A) (A) (A)
                 (A) (A) (A) (A) (A) (A) (A) (A) (A) (A) (A) (A)
                 (A) (A) (A) (A) (A) (A) (A) (A) (A) (A) (A) (A)
                 (A) (A) (A) (A) (A) (A) (A) (A) (A) (A) (A) (A)
                 (A) (A) (A) (A) (A) (A) (A) (A) (A) (A) (A) (A)
                 (A) (A) (A) (A) (A) (A) (A) (A) (A) (A) (A) (A)
                 (A) (A) (A) (A) (A) (A) (A) (A) (A) (A) (A) (A)
                 (A) (A) (A) (A) (A) (A) (A) (A) (A) (A) (A) (A)
                 (A) (A) (A) (A) (A) (A) (A) (A) (A) (A) (A) (A)
                 (A) (A) (A) (A) (A) (A) (A) (A) (A) (A) (A) (A)
                 (A) (A) (A) (A) (A) (A) (A) (A) (A) (A) (A) (A)
                 (A) (A) (A) (A) (A) (A) (A) (A) (A) (A) (A) (A)
                 (A) (A) (A) (A) (A) (A) (A) (A) (A) (A) (A) (A)
                 (A) (A) (A) (A) (A) (A) (A) (A) (A) (A) (A) (A)
                 (A) (A) (A) (A) (A) (A) (A) (A) (A) (A) (A) (A)
                 (A) (A) (A) (A) (A) (A) (A) (A) (A) (A) (A) (A)
                 (A) (A) (A) (A) (A) (A) (A) (A) (A) (A) (A) (A)
                 (A) (A) (A) (A) (A) (A) (A) (A) (A) (A) (A) (A)
                 (A) (A) (A) (A) (A) (A) (A) (A) (A) (A) (A) (A)
                 (A) (A) (A) (A) (A) (A) (A) (A) (A) (A) (A) (A)
                 (A) (A) (A) (A) (A) (A) (A) (A) (A) (A) (A) (A)
                 (A) (A) (A) (A) (A) (A) (A) (A) (A) (A) (A) (A)
                 (A) (A) (A) (A) (A) (A) (A) (A) (A) (A) (A) (A)
                 (A) (A) (A) (A) (A) (A) (A) (A) (A) (A) (A) (A)
                 (A) (A) (A) (A) (A) (A) (A) (A) (A) (A) (A) (A)
                 (A) (A) (A) (A) (A) (A) (A) (A) (A) (A) (A) (A)
                 (A) (A) (A) (A) (A) (A) (A) (A) (A) (A) (A) (A)
                 (A) (A) (A) (A) (A) (A) (A) (A) (A) (A) (A) (A)
                 (A) (A) (A) (A) (A) (A) (A) (A) (A) (A) (A) (A)
                 (A) (A) (A) (A) (A) (A) (A) (A) (A) (A) (A) (A)
                 (A) (A) (A) (A) (A) (A) (A) (A) (A) (A) (A) (A)
                 (A) (A) (A) (A) (A) (A) (A) (A) (A) (A) (A) (A)
                 (A) (A) (A) (A) (A) (A) (A) (A) (A) (A) (A) (A)
                 (A) (A) (A) (A) (A) (A) (A) (A) (A) (A) (A) (A)
                 (A) (A) (A) (A) (A) (A) (A) (A) (A) (A) (A) (A)
                 (A) (A) (A) (A) (A) (A) (A) (A) (A) (A) (A) (A)
                 (A) (A) (A) (A) (A) (A) (A) (A) (A) (A) (A) (A)
                 (A) (A) (A) (A) (A) (A) (A) (A) (A) (A) (A) (A)
                 (A) (A) (A) (A) (A) (A) (A) (A) (A) (A) (A) (A)
                 (A) (A) (A) (A) (A) (A) (A) (A) (A) (A) (A) (A)
                 (A) (A) (A) (A) (A) (A) (A) (A) (A) (A) (A) (A)
                 (A) (A) (A) (A) (A) (A) (A) (A) (A) (A) (A) (A)
                 (A) (A) (A) (A) (A) (A) (A) (A) (A) (A) (A) (A)
                 (A) (A) (A) (A) (A) (A) (A) (A) (A) (A) (A) (A)
                 (A) (A) (A) (A) (A) (A) (A) (A) (A) (A) (A) (A)
                 (A) (A) (A) (A) (A) (A) (A) (A) (A) (A) (A) (A)
                 (A) (A) (A) (A) (A) (A) (A) (A) (A) (A) (A) (A)
                 (A) (A) (A) (A) (A) (A) (A) (A) (A) (A) (A) (A)
                 (A) (A) (A) (A) (A) (A) (A) (A) (A) (A) (A) (A)
                 (A) (A) (A) (A) (A) (A) (A) (A) (A) (A) (A) (A)
                 (A) (A) (A) (A) (A) (A) (A) (A) (A) (A) (A) (A)
                 (A) (A) (A) (A) (A) (A) (A) (A) (A) (A) (A) (A)
                 (A) (A) (A) (A) (A) (A) (A) (A) (A) (A) (A) (A)
                 (A) (A) (A) (A) (A) (A) (A) (A) (A) (A) (A) (A)
                 (A) (A) (A) (A) (A) (A) (A) (A) (A) (A) (A) (A)
                 (A) (A) (A) (A) (A) (A) (A) (A) (A) (A) (A) (A)
                 (A) (A) (A) (A) (A) (A) (A) (A) (A) (A) (A) (A)
                 (A) (A) (A) (A) (A) (A) (A) (A) (A) (A) (A) (A)
                 (A) (A) (A) (A) (A) (A) (A) (A) (A) (A) (A) (A)
                 (A) (A) (A) (A) (A) (A) (A) (A) (A) (A) (A) (A)
                 (A) (A) (A) (A) (A) (A) (A) (A) (A) (A) (A) (A)
                 (A) (A) (A) (A) (A) (A) (A) (A) (A) (A) (A) (A)
                 (A) (A) (A) (A) (A) (A) (A) (A) (A) (A) (A) (A)
                 (A) (A) (A) (A) (A) (A) (A) (A) (A) (A) (A) (A)
                 (A) (A) (A) (A) (A) (A) (A) (A) (A) (A) (A) (A)
                 (A) (A) (A) (A) (A) (A) (A) (A) (A) (A) (A) (A)
                 (A) (A) (A) (A) (A) (A) (A) (A) (A) (A) (A) (A)
                 (A) (A) (A) (A) (A) (A) (A) (A) (A) (A) (A) (A)
                 (A) (A) (A) (A) (A) (A) (A) (A) (A) (A) (A) (A)
                 (A) (A) (A) (A) (A) (A) (A) (A) (A) (A) (A) (A)
                 (A) (A) (A) (A) (A) (A) (A) (A) (A) (A) (A) (A)
                 (A) (A) (A) (A) (A) (A) (A) (A) (A) (A) (A) (A)
                 (A) (A) (A) (A) (A) (A) (A) (A) (A) (A) (A) (A)
                 (A) (A) (A) (A) (A) (A) (A) (A) (A) (A) (A) (A)
                 (A) (A) (A) (A) (A) (A) (A) (A) (A) (A) (A) (A)
                 (A) (A) (A) (A) (A) (A) (A) (A) (A) (A) (A) (A)
                 (A) (A) (A) (A) (A) (A) (A) (A) (A) (A) (A) (A)
                 (A) (A) (A) (A) (A) (A) (A) (A) (A) (A) (A) (A)
   600 initial guesses have been made.
 Convergence on wavefunction:    0.001000000000000
 Iteration     1 Dimension   600 NMult     0 NNew    600
 CISAX will form    64 AO SS matrices at one time.
 New state      8 was old state     10
 New state      9 was old state      8
 New state     10 was old state      9
 New state     12 was old state     16
 New state     13 was old state     17
 New state     15 was old state     20
 New state     16 was old state     12
 New state     17 was old state     18
 New state     18 was old state     22
 New state     19 was old state     13
 New state     20 was old state     23
 New state     21 was old state     15
 New state     22 was old state     54
 New state     23 was old state     30
 New state     24 was old state     25
 New state     25 was old state     31
 New state     26 was old state     29
 New state     27 was old state     24
 New state     28 was old state     21
 New state     29 was old state     40
 New state     30 was old state     19
 New state     31 was old state     66
 New state     32 was old state     48
 New state     33 was old state     32
 New state     34 was old state     53
 New state     35 was old state     33
 New state     36 was old state     44
 New state     37 was old state     75
 New state     38 was old state     41
 New state     39 was old state     47
 New state     40 was old state     90
 New state     41 was old state     27
 New state     42 was old state     51
 New state     43 was old state     28
 New state     44 was old state     38
 New state     45 was old state     34
 New state     46 was old state     42
 New state     47 was old state     39
 New state     48 was old state     35
 New state     49 was old state    108
 New state     50 was old state     45
 New state     51 was old state     37
 New state     52 was old state    102
 New state     53 was old state     46
 New state     54 was old state    121
 New state     55 was old state     36
 New state     56 was old state     43
 New state     57 was old state     56
 New state     58 was old state     49
 New state     59 was old state     63
 New state     60 was old state    112
 New state     61 was old state     50
 New state     62 was old state     89
 New state     63 was old state     57
 New state     64 was old state     61
 New state     65 was old state     72
 New state     66 was old state     60
 New state     68 was old state    105
 New state     69 was old state     52
 New state     70 was old state     65
 New state     71 was old state     77
 New state     72 was old state     71
 New state     73 was old state     69
 New state     74 was old state    138
 New state     75 was old state     64
 New state     76 was old state     98
 New state     77 was old state    117
 New state     78 was old state     62
 New state     79 was old state     59
 New state     80 was old state     81
 New state     81 was old state     79
 New state     82 was old state     80
 New state     83 was old state     70
 New state     84 was old state     91
 New state     85 was old state    149
 New state     86 was old state     82
 New state     87 was old state    162
 New state     88 was old state     99
 New state     89 was old state    127
 New state     90 was old state     74
 New state     91 was old state    143
 New state     92 was old state     94
 New state     93 was old state     76
 New state     94 was old state     84
 New state     95 was old state    118
 New state     96 was old state     87
 New state     97 was old state    258
 New state     98 was old state     85
 New state     99 was old state    173
 New state    100 was old state     83
 New state    101 was old state     88
 New state    102 was old state     92
 New state    103 was old state    114
 New state    104 was old state    154
 New state    105 was old state    179
 New state    106 was old state     73
 New state    107 was old state     96
 New state    108 was old state    106
 New state    109 was old state     93
 New state    110 was old state    107
 New state    111 was old state    109
 New state    112 was old state    103
 New state    113 was old state     95
 New state    114 was old state    104
 New state    115 was old state     97
 New state    116 was old state    182
 New state    117 was old state    210
 New state    118 was old state    101
 New state    119 was old state    133
 New state    120 was old state    100
 New state    121 was old state    180
 New state    122 was old state    113
 New state    123 was old state    111
 New state    124 was old state    141
 New state    125 was old state    196
 New state    126 was old state     55
 New state    127 was old state    144
 New state    128 was old state    134
 New state    129 was old state    120
 New state    130 was old state    145
 New state    131 was old state    110
 New state    132 was old state    124
 New state    133 was old state    116
 New state    134 was old state    115
 New state    135 was old state    119
 New state    136 was old state    140
 New state    137 was old state    128
 New state    138 was old state    171
 New state    140 was old state    184
 New state    141 was old state    137
 New state    142 was old state    126
 New state    143 was old state    131
 New state    144 was old state    129
 New state    145 was old state    132
 New state    146 was old state    125
 New state    147 was old state    170
 New state    148 was old state    142
 New state    149 was old state    122
 New state    150 was old state    322
 Iteration     2 Dimension   900 NMult   600 NNew    300
 New state      6 was old state      7
 New state      7 was old state      6
 New state      8 was old state     10
 New state      9 was old state      8
 New state     10 was old state      9
 New state     12 was old state     19
 New state     13 was old state     14
 New state     14 was old state     12
 New state     15 was old state     13
 New state     17 was old state     15
 New state     18 was old state     17
 New state     19 was old state     34
 New state     20 was old state     18
 New state     21 was old state     22
 New state     22 was old state     20
 New state     23 was old state     21
 New state     24 was old state     27
 New state     25 was old state     24
 New state     26 was old state     25
 New state     27 was old state     23
 New state     28 was old state     26
 New state     29 was old state     28
 New state     32 was old state     29
 New state     33 was old state     32
 New state     34 was old state     33
 New state     35 was old state     36
 New state     36 was old state     37
 New state     37 was old state     43
 New state     38 was old state     35
 New state     39 was old state     38
 New state     41 was old state     49
 New state     42 was old state     57
 New state     43 was old state     39
 New state     44 was old state     41
 New state     45 was old state     46
 New state     46 was old state     47
 New state     47 was old state     44
 New state     48 was old state     54
 New state     49 was old state     42
 New state     50 was old state     45
 New state     51 was old state     52
 New state     52 was old state     50
 New state     53 was old state     51
 New state     54 was old state     48
 New state     55 was old state     56
 New state     56 was old state     53
 New state     57 was old state     60
 New state     58 was old state     61
 New state     59 was old state     55
 New state     60 was old state     72
 New state     61 was old state     66
 New state     62 was old state     67
 New state     63 was old state     58
 New state     64 was old state     59
 New state     65 was old state     84
 New state     66 was old state     62
 New state     67 was old state     70
 New state     68 was old state     63
 New state     69 was old state     64
 New state     70 was old state     74
 New state     71 was old state     65
 New state     72 was old state     69
 New state     73 was old state     68
 New state     74 was old state     81
 New state     75 was old state     71
 New state     76 was old state     73
 New state     77 was old state     80
 New state     78 was old state     76
 New state     79 was old state     85
 New state     80 was old state     75
 New state     81 was old state     77
 New state     82 was old state     78
 New state     83 was old state     97
 New state     84 was old state     79
 New state     85 was old state     82
 New state     86 was old state     87
 New state     87 was old state     83
 New state     88 was old state     86
 New state     89 was old state     95
 New state     90 was old state     89
 New state     91 was old state     88
 New state     93 was old state     94
 New state     94 was old state     91
 New state     95 was old state     96
 New state     96 was old state     90
 New state     97 was old state    104
 New state     98 was old state     93
 New state     99 was old state    105
 New state    100 was old state     98
 New state    101 was old state    100
 New state    102 was old state     99
 New state    103 was old state    101
 New state    104 was old state    117
 New state    105 was old state    109
 New state    106 was old state    103
 New state    107 was old state    106
 New state    108 was old state    102
 New state    109 was old state    108
 New state    110 was old state    107
 New state    111 was old state    119
 New state    112 was old state    110
 New state    113 was old state    114
 New state    114 was old state    112
 New state    115 was old state    111
 New state    116 was old state    121
 New state    117 was old state    118
 New state    118 was old state    116
 New state    119 was old state    113
 New state    120 was old state    115
 New state    121 was old state    120
 New state    122 was old state    124
 New state    123 was old state    122
 New state    124 was old state    123
 New state    125 was old state    141
 New state    126 was old state    140
 New state    127 was old state    130
 New state    128 was old state    125
 New state    129 was old state    127
 New state    130 was old state    126
 New state    131 was old state    150
 New state    132 was old state    128
 New state    133 was old state    138
 New state    134 was old state    129
 New state    135 was old state    131
 New state    136 was old state    133
 New state    137 was old state    132
 New state    138 was old state    137
 New state    139 was old state    134
 New state    140 was old state    147
 New state    141 was old state    135
 New state    143 was old state    158
 New state    144 was old state    139
 New state    145 was old state    143
 New state    146 was old state    136
 New state    147 was old state    145
 New state    148 was old state    153
 New state    149 was old state    144
 New state    150 was old state    146
 Iteration     3 Dimension  1200 NMult   900 NNew    300
 New state     39 was old state     40
 New state     40 was old state     39
 New state     66 was old state     67
 New state     67 was old state     66
 New state     69 was old state     70
 New state     70 was old state     69
 New state     76 was old state     77
 New state     77 was old state     76
 New state     78 was old state     79
 New state     79 was old state     78
 New state     87 was old state     88
 New state     88 was old state     87
 New state     96 was old state     97
 New state     97 was old state     96
 New state    101 was old state    103
 New state    102 was old state    101
 New state    103 was old state    102
 New state    106 was old state    107
 New state    107 was old state    106
 New state    123 was old state    124
 New state    124 was old state    123
 New state    130 was old state    131
 New state    131 was old state    130
 New state    140 was old state    141
 New state    141 was old state    143
 New state    142 was old state    140
 New state    143 was old state    145
 New state    144 was old state    142
 New state    145 was old state    148
 New state    146 was old state    144
 New state    147 was old state    146
 New state    148 was old state    147
 New state    149 was old state    150
 New state    150 was old state    149
 Iteration     4 Dimension  1498 NMult  1200 NNew    298
 New state    126 was old state    127
 New state    127 was old state    126
 New state    135 was old state    140
 New state    136 was old state    135
 New state    137 was old state    136
 New state    138 was old state    137
 New state    139 was old state    138
 New state    140 was old state    139
 Iteration     5 Dimension  1674 NMult  1498 NNew    176
 Iteration     6 Dimension  1724 NMult  1674 NNew     50
 Iteration     7 Dimension  1730 NMult  1724 NNew      6
 ***********************************************************************
 Excited states from <AA,BB:AA,BB> singles matrix:
 ***********************************************************************
 
 Ground to excited state transition densities written to RWF  633
 Ground to excited state transition electric dipole moments (Au):
       state          X           Y           Z        Dip. S.      Osc.
         1        -8.8171      1.3426     -0.0000     79.5435      4.4823
         2         0.0000      0.0000      0.1603      0.0257      0.0020
         3        -0.0000     -0.0000     -0.0851      0.0073      0.0006
         4        -1.2905     -0.6814      0.0000      2.1296      0.2062
         5        -1.8572     -0.1721      0.0000      3.4788      0.3643
         6        -0.0000      0.0000      0.1506      0.0227      0.0026
         7         0.6988     -0.5658      0.0000      0.8085      0.0932
         8         0.0000      0.0000      0.1743      0.0304      0.0037
         9         0.0099     -0.3424     -0.0000      0.1173      0.0147
        10        -0.0000      0.0000      0.0216      0.0005      0.0001
        11         0.0000     -0.0000     -0.0109      0.0001      0.0000
        12         0.5296     -0.5357     -0.0000      0.5674      0.0784
        13         0.0000     -0.0000      0.0584      0.0034      0.0005
        14        -0.1023     -0.0184     -0.0000      0.0108      0.0015
        15        -0.0000     -0.0000      0.0225      0.0005      0.0001
        16         0.1080     -0.0010     -0.0000      0.0117      0.0017
        17        -0.0811      0.0868      0.0003      0.0141      0.0021
        18        -0.0001      0.0001     -0.2979      0.0887      0.0130
        19         0.0000      0.0000      0.2534      0.0642      0.0097
        20        -0.1060      0.0573     -0.0000      0.0145      0.0022
        21         0.0789      0.0236     -0.0000      0.0068      0.0010
        22         0.0000      0.0000     -0.1524      0.0232      0.0036
        23        -0.6189      0.4245     -0.0000      0.5632      0.0867
        24        -0.2296      0.3556     -0.0000      0.1792      0.0278
        25        -0.0000      0.0000      0.0559      0.0031      0.0005
        26         0.0863     -0.1507     -0.0000      0.0302      0.0047
        27         0.0000      0.0000     -0.0003      0.0000      0.0000
        28        -0.0168      0.0983      0.0000      0.0099      0.0016
        29        -0.0000     -0.0000      0.0509      0.0026      0.0004
        30        -0.0130      0.0022      0.0000      0.0002      0.0000
        31        -0.0000     -0.0000      0.0025      0.0000      0.0000
        32        -0.0703      0.1346     -0.0000      0.0230      0.0037
        33         0.0310     -0.3108      0.0000      0.0976      0.0155
        34        -0.0000      0.0001     -0.0040      0.0000      0.0000
        35         0.0252     -0.1488     -0.0000      0.0228      0.0036
        36        -0.0211      0.0374     -0.0000      0.0018      0.0003
        37         0.0000      0.0000      0.0146      0.0002      0.0000
        38        -0.0000     -0.0000      0.0698      0.0049      0.0008
        39         0.0000     -0.0000     -0.0013      0.0000      0.0000
        40        -0.0261     -0.0243     -0.0000      0.0013      0.0002
        41        -0.0109      0.0236     -0.0000      0.0007      0.0001
        42        -0.3837      0.4219      0.0000      0.3252      0.0543
        43        -0.0000      0.0000     -0.1119      0.0125      0.0021
        44         0.0000      0.0000      0.1249      0.0156      0.0026
        45         0.0218      0.0874     -0.0000      0.0081      0.0014
        46        -0.0000      0.0001      0.0671      0.0045      0.0008
        47        -0.1537      0.5311     -0.0000      0.3057      0.0521
        48        -0.0000      0.0000     -0.0431      0.0019      0.0003
        49        -0.0599      0.0046      0.0000      0.0036      0.0006
        50         0.0000     -0.0000     -0.0204      0.0004      0.0001
        51         0.0449      0.3554     -0.0000      0.1283      0.0222
        52         0.0000      0.0000      0.0257      0.0007      0.0001
        53         0.0000      0.0001      0.0072      0.0001      0.0000
        54         0.0514      0.1183     -0.0000      0.0166      0.0029
        55         0.0000     -0.0000      0.0125      0.0002      0.0000
        56         0.0905     -0.2445      0.0000      0.0680      0.0119
        57         0.0000      0.0000     -0.0269      0.0007      0.0001
        58        -0.2786      0.0538      0.0000      0.0805      0.0141
        59         0.0000     -0.0000      0.0325      0.0011      0.0002
        60         0.0000     -0.0000      0.0075      0.0001      0.0000
        61         0.1942      0.0305     -0.0000      0.0386      0.0069
        62         0.0661      0.1367     -0.0000      0.0231      0.0041
        63        -0.0000      0.0000     -0.0304      0.0009      0.0002
        64         0.0000     -0.0000      0.0666      0.0044      0.0008
        65        -0.0781      0.2847      0.0000      0.0871      0.0157
        66         0.0000      0.0000     -0.0052      0.0000      0.0000
        67         0.0943      0.1224      0.0000      0.0239      0.0043
        68        -0.0358      0.1626      0.0000      0.0277      0.0050
        69         0.0995      0.0224     -0.0000      0.0104      0.0019
        70         0.0000     -0.0000      0.0976      0.0095      0.0017
        71        -0.0000      0.0000      0.0308      0.0009      0.0002
        72        -0.0040      0.1077      0.0000      0.0116      0.0021
        73         0.0000     -0.0000     -0.1174      0.0138      0.0025
        74         0.0000      0.0000      0.0381      0.0014      0.0003
        75        -0.0077     -0.0119      0.0000      0.0002      0.0000
        76         0.0360     -0.0280      0.0000      0.0021      0.0004
        77        -0.0508      0.1066     -0.0000      0.0139      0.0026
        78        -0.0000     -0.0000      0.0786      0.0062      0.0011
        79        -0.1693     -0.1024     -0.0000      0.0392      0.0073
        80         0.0000     -0.0000      0.0214      0.0005      0.0001
        81        -0.0000     -0.0000     -0.0375      0.0014      0.0003
        82         0.0653      0.0827     -0.0000      0.0111      0.0021
        83         0.0000     -0.0000     -0.0967      0.0094      0.0018
        84         0.0000     -0.0000      0.1003      0.0101      0.0019
        85         0.0000     -0.0000      0.1106      0.0122      0.0023
        86         0.1881     -0.1515     -0.0000      0.0584      0.0110
        87         0.0000     -0.0000      0.0244      0.0006      0.0001
        88         0.1812     -0.1056      0.0000      0.0440      0.0084
        89        -0.2730      0.5132     -0.0000      0.3379      0.0643
        90         0.0571     -0.6319      0.0000      0.4025      0.0768
        91        -0.0000      0.0000      0.1779      0.0316      0.0060
        92        -0.0000     -0.0000      0.0839      0.0070      0.0013
        93        -0.2875     -0.5072     -0.0000      0.3400      0.0654
        94         0.3714     -0.2280     -0.0000      0.1899      0.0366
        95        -0.0000     -0.0000      0.0443      0.0020      0.0004
        96        -0.1035     -0.1193     -0.0000      0.0249      0.0048
        97        -0.0000     -0.0000      0.0409      0.0017      0.0003
        98        -0.2391     -0.0250      0.0000      0.0578      0.0112
        99        -0.0000     -0.0000     -0.0028      0.0000      0.0000
       100        -0.1711     -0.1505      0.0000      0.0519      0.0101
       101        -0.1425      0.0041     -0.0000      0.0203      0.0040
       102         0.0000     -0.0000     -0.0881      0.0078      0.0015
       103         0.0000      0.0000      0.0192      0.0004      0.0001
       104        -0.3319      0.0064     -0.0000      0.1102      0.0216
       105         0.0000     -0.0000     -0.0239      0.0006      0.0001
       106        -0.1365      0.6585      0.0000      0.4523      0.0888
       107         0.0000     -0.0002      0.0644      0.0041      0.0008
       108        -0.1818      0.1466      0.0000      0.0545      0.0107
       109         0.0083      0.0694     -0.0000      0.0049      0.0010
       110         0.0000      0.0000     -0.0483      0.0023      0.0005
       111         0.0000     -0.0000      0.0220      0.0005      0.0001
       112         0.0236     -0.2423     -0.0000      0.0592      0.0118
       113         0.0000     -0.0002      0.0225      0.0005      0.0001
       114        -0.0034      0.2339      0.0000      0.0547      0.0109
       115         0.0000      0.0000     -0.0322      0.0010      0.0002
       116         0.0145     -0.0040     -0.0000      0.0002      0.0000
       117         0.1067      0.1033     -0.0000      0.0221      0.0044
       118         0.0000      0.0000      0.0323      0.0010      0.0002
       119        -0.0858     -0.0154     -0.0000      0.0076      0.0015
       120        -0.0000     -0.0000      0.0709      0.0050      0.0010
       121        -0.0000     -0.0000      0.0047      0.0000      0.0000
       122        -0.0000     -0.0000     -0.0630      0.0040      0.0008
       123         0.0000     -0.0000     -0.0678      0.0046      0.0009
       124        -0.0863      0.0324     -0.0000      0.0085      0.0017
       125         0.0000      0.0000     -0.0148      0.0002      0.0000
       126        -0.0570     -0.0199     -0.0000      0.0036      0.0007
       127         0.0000      0.0000     -0.0534      0.0029      0.0006
       128        -0.0296     -0.1024     -0.0000      0.0114      0.0023
       129         0.0140     -0.1694     -0.0000      0.0289      0.0059
       130         0.0871      0.0342      0.0000      0.0088      0.0018
       131        -0.0000     -0.0000      0.0238      0.0006      0.0001
       132        -0.0000      0.0000      0.0032      0.0000      0.0000
       133         0.0197     -0.3696     -0.0000      0.1370      0.0282
       134        -0.0582      0.1512     -0.0000      0.0263      0.0054
       135         0.1030     -0.1279      0.0000      0.0270      0.0056
       136        -0.0000      0.0000     -0.0191      0.0004      0.0001
       137        -0.0422      0.1373     -0.0000      0.0206      0.0043
       138        -0.0000      0.0000      0.0562      0.0032      0.0007
       139        -0.0000      0.0000     -0.0158      0.0002      0.0001
       140         0.0000     -0.0000      0.0178      0.0003      0.0001
       141        -0.0167      0.0515     -0.0000      0.0029      0.0006
       142         0.0000      0.0000     -0.0024      0.0000      0.0000
       143        -0.0989     -0.1657      0.0000      0.0372      0.0077
       144        -0.0845     -0.0383     -0.0000      0.0086      0.0018
       145        -0.0598     -0.0057      0.0000      0.0036      0.0008
       146         0.0000     -0.0000      0.1599      0.0256      0.0053
       147         0.0397      0.1441      0.0000      0.0223      0.0047
       148        -0.0000     -0.0000      0.0686      0.0047      0.0010
       149         0.0107     -0.1521     -0.0000      0.0232      0.0049
       150         0.0000      0.0000     -0.1699      0.0289      0.0061
 Ground to excited state transition velocity dipole moments (Au):
       state          X           Y           Z        Dip. S.      Osc.
         1         0.7715     -0.1175      0.0000      0.6091      4.8037
         2        -0.0000      0.0000     -0.0198      0.0004      0.0022
         3         0.0000     -0.0000      0.0116      0.0001      0.0007
         4         0.1959      0.1018      0.0000      0.0487      0.2237
         5         0.3021      0.0256      0.0000      0.0919      0.3902
         6         0.0000      0.0000     -0.0268      0.0007      0.0028
         7        -0.1249      0.1013     -0.0000      0.0258      0.0996
         8         0.0000      0.0000     -0.0336      0.0011      0.0041
         9        -0.0027      0.0678     -0.0000      0.0046      0.0163
        10         0.0000     -0.0000     -0.0045      0.0000      0.0001
        11        -0.0000     -0.0000      0.0024      0.0000      0.0000
        12        -0.1157      0.1178     -0.0000      0.0273      0.0877
        13        -0.0000      0.0000     -0.0129      0.0002      0.0005
        14         0.0230      0.0039      0.0000      0.0005      0.0017
        15         0.0000      0.0000     -0.0039      0.0000      0.0000
        16        -0.0244     -0.0004      0.0000      0.0006      0.0018
        17         0.0179     -0.0198     -0.0001      0.0007      0.0022
        18         0.0000     -0.0000      0.0708      0.0050      0.0153
        19         0.0000      0.0000     -0.0596      0.0035      0.0105
        20         0.0246     -0.0136      0.0000      0.0008      0.0023
        21        -0.0187     -0.0063      0.0000      0.0004      0.0011
        22        -0.0000      0.0000      0.0354      0.0012      0.0036
        23         0.1465     -0.1014      0.0000      0.0318      0.0916
        24         0.0548     -0.0869      0.0000      0.0105      0.0303
        25         0.0000     -0.0000     -0.0142      0.0002      0.0006
        26        -0.0188      0.0386     -0.0000      0.0018      0.0053
        27        -0.0000     -0.0000      0.0001      0.0000      0.0000
        28         0.0032     -0.0243     -0.0000      0.0006      0.0017
        29        -0.0000     -0.0000     -0.0123      0.0002      0.0004
        30         0.0029     -0.0010     -0.0000      0.0000      0.0000
        31         0.0000      0.0000     -0.0008      0.0000      0.0000
        32         0.0166     -0.0339      0.0000      0.0014      0.0040
        33        -0.0074      0.0764      0.0000      0.0059      0.0165
        34         0.0000     -0.0000      0.0009      0.0000      0.0000
        35        -0.0077      0.0333      0.0000      0.0012      0.0032
        36         0.0052     -0.0091      0.0000      0.0001      0.0003
        37        -0.0000      0.0000     -0.0040      0.0000      0.0000
        38         0.0000      0.0000     -0.0182      0.0003      0.0009
        39        -0.0000      0.0000      0.0002      0.0000      0.0000
        40         0.0080      0.0070      0.0000      0.0001      0.0003
        41         0.0028     -0.0059      0.0000      0.0000      0.0001
        42         0.1019     -0.1077     -0.0000      0.0220      0.0585
        43         0.0000     -0.0000      0.0301      0.0009      0.0024
        44        -0.0000     -0.0000     -0.0327      0.0011      0.0028
        45        -0.0058     -0.0228      0.0000      0.0006      0.0015
        46         0.0000     -0.0000     -0.0183      0.0003      0.0009
        47         0.0422     -0.1381      0.0000      0.0208      0.0544
        48        -0.0000     -0.0000      0.0131      0.0002      0.0004
        49         0.0163     -0.0010      0.0000      0.0003      0.0007
        50        -0.0000      0.0000      0.0053      0.0000      0.0001
        51        -0.0118     -0.0960     -0.0000      0.0093      0.0240
        52         0.0000     -0.0000     -0.0086      0.0001      0.0002
        53        -0.0000     -0.0000     -0.0029      0.0000      0.0000
        54        -0.0132     -0.0318      0.0000      0.0012      0.0030
        55        -0.0000      0.0000     -0.0044      0.0000      0.0000
        56        -0.0247      0.0674      0.0000      0.0052      0.0131
        57         0.0000     -0.0000      0.0097      0.0001      0.0002
        58         0.0764     -0.0151     -0.0000      0.0061      0.0154
        59        -0.0000     -0.0000     -0.0094      0.0001      0.0002
        60        -0.0000      0.0000     -0.0020      0.0000      0.0000
        61        -0.0549     -0.0070     -0.0000      0.0031      0.0076
        62        -0.0190     -0.0374     -0.0000      0.0018      0.0044
        63         0.0000     -0.0000      0.0082      0.0001      0.0002
        64        -0.0000      0.0000     -0.0218      0.0005      0.0012
        65         0.0220     -0.0794     -0.0000      0.0068      0.0167
        66        -0.0000     -0.0000     -0.0002      0.0000      0.0000
        67        -0.0255     -0.0355      0.0000      0.0019      0.0047
        68         0.0095     -0.0461      0.0000      0.0022      0.0054
        69        -0.0277     -0.0068      0.0000      0.0008      0.0020
        70        -0.0000      0.0000     -0.0293      0.0009      0.0021
        71         0.0000     -0.0000     -0.0137      0.0002      0.0005
        72         0.0017     -0.0336     -0.0000      0.0011      0.0027
        73        -0.0000      0.0000      0.0295      0.0009      0.0021
        74         0.0000     -0.0000     -0.0117      0.0001      0.0003
        75         0.0018      0.0045      0.0000      0.0000      0.0001
        76        -0.0103      0.0077      0.0000      0.0002      0.0004
        77         0.0149     -0.0323     -0.0000      0.0013      0.0030
        78         0.0000      0.0000     -0.0235      0.0006      0.0013
        79         0.0502      0.0303      0.0000      0.0034      0.0082
        80        -0.0000      0.0000     -0.0046      0.0000      0.0001
        81         0.0000      0.0000      0.0099      0.0001      0.0002
        82        -0.0196     -0.0242      0.0000      0.0010      0.0023
        83        -0.0000      0.0000      0.0289      0.0008      0.0020
        84        -0.0000      0.0000     -0.0291      0.0008      0.0020
        85        -0.0000      0.0000     -0.0323      0.0010      0.0025
        86        -0.0549      0.0452      0.0000      0.0051      0.0119
        87        -0.0000      0.0000     -0.0076      0.0001      0.0001
        88        -0.0524      0.0332      0.0000      0.0039      0.0090
        89         0.0811     -0.1526     -0.0000      0.0299      0.0697
        90        -0.0144      0.1885     -0.0000      0.0357      0.0832
        91         0.0000     -0.0000     -0.0508      0.0026      0.0060
        92         0.0000      0.0000     -0.0252      0.0006      0.0015
        93         0.0877      0.1533      0.0000      0.0312      0.0722
        94        -0.1095      0.0694      0.0000      0.0168      0.0388
        95         0.0000      0.0000     -0.0133      0.0002      0.0004
        96         0.0304      0.0356      0.0000      0.0022      0.0050
        97         0.0000      0.0000     -0.0124      0.0002      0.0004
        98         0.0731      0.0081     -0.0000      0.0054      0.0124
        99         0.0000      0.0000      0.0010      0.0000      0.0000
       100         0.0516      0.0477      0.0000      0.0049      0.0113
       101         0.0435     -0.0015      0.0000      0.0019      0.0043
       102        -0.0000      0.0000      0.0279      0.0008      0.0018
       103        -0.0000     -0.0000     -0.0068      0.0000      0.0001
       104         0.1008     -0.0033      0.0000      0.0102      0.0231
       105        -0.0000      0.0000      0.0067      0.0000      0.0001
       106         0.0427     -0.1994     -0.0000      0.0416      0.0942
       107        -0.0000      0.0000     -0.0200      0.0004      0.0009
       108         0.0567     -0.0431     -0.0000      0.0051      0.0115
       109        -0.0029     -0.0174      0.0000      0.0003      0.0007
       110        -0.0000     -0.0000      0.0156      0.0002      0.0005
       111         0.0000      0.0000     -0.0061      0.0000      0.0001
       112        -0.0067      0.0748      0.0000      0.0056      0.0126
       113        -0.0000      0.0001     -0.0085      0.0001      0.0002
       114         0.0011     -0.0723     -0.0000      0.0052      0.0117
       115        -0.0000     -0.0000      0.0081      0.0001      0.0001
       116        -0.0046      0.0014     -0.0000      0.0000      0.0001
       117        -0.0328     -0.0316      0.0000      0.0021      0.0046
       118        -0.0000     -0.0000     -0.0109      0.0001      0.0003
       119         0.0266      0.0037      0.0000      0.0007      0.0016
       120         0.0000      0.0000     -0.0238      0.0006      0.0013
       121         0.0000      0.0000     -0.0002      0.0000      0.0000
       122         0.0000      0.0000      0.0218      0.0005      0.0010
       123        -0.0000     -0.0000      0.0235      0.0006      0.0012
       124         0.0261     -0.0110      0.0000      0.0008      0.0018
       125        -0.0000     -0.0000      0.0047      0.0000      0.0000
       126         0.0184      0.0064     -0.0000      0.0004      0.0008
       127        -0.0000      0.0000      0.0154      0.0002      0.0005
       128         0.0094      0.0325      0.0000      0.0011      0.0025
       129        -0.0036      0.0545     -0.0000      0.0030      0.0065
       130        -0.0257     -0.0091     -0.0000      0.0007      0.0016
       131         0.0000      0.0000     -0.0086      0.0001      0.0002
       132         0.0000      0.0000      0.0009      0.0000      0.0000
       133        -0.0060      0.1182     -0.0000      0.0140      0.0302
       134         0.0182     -0.0489      0.0000      0.0027      0.0059
       135        -0.0327      0.0396      0.0000      0.0026      0.0057
       136         0.0000     -0.0000      0.0076      0.0001      0.0001
       137         0.0129     -0.0423      0.0000      0.0020      0.0042
       138        -0.0000     -0.0000     -0.0161      0.0003      0.0006
       139         0.0000      0.0000      0.0055      0.0000      0.0001
       140         0.0000      0.0000     -0.0049      0.0000      0.0001
       141         0.0046     -0.0172     -0.0000      0.0003      0.0007
       142        -0.0000     -0.0000      0.0007      0.0000      0.0000
       143         0.0294      0.0479     -0.0000      0.0032      0.0067
       144         0.0275      0.0119      0.0000      0.0009      0.0019
       145         0.0190      0.0014     -0.0000      0.0004      0.0008
       146        -0.0000      0.0000     -0.0479      0.0023      0.0049
       147        -0.0125     -0.0484     -0.0000      0.0025      0.0053
       148         0.0000      0.0000     -0.0214      0.0005      0.0010
       149        -0.0049      0.0485      0.0000      0.0024      0.0050
       150         0.0000     -0.0000      0.0534      0.0028      0.0060
 Ground to excited state transition magnetic dipole moments (Au):
       state          X           Y           Z
         1         0.0261      0.3012      0.0000
         2        -0.0000     -0.0000      0.8689
         3         0.0000     -0.0000     -0.1618
         4        -0.0086      0.4972     -0.0000
         5         0.0041      0.4961     -0.0000
         6        -0.0000      0.0001      0.0208
         7        -0.0180     -0.0350     -0.0000
         8         0.0000      0.0000     -0.8304
         9        -0.0294     -0.4646     -0.0000
        10         0.0000      0.0000      0.0908
        11        -0.0000     -0.0000     -0.5226
        12        -0.0455     -0.8457      0.0000
        13        -0.0000     -0.0000     -1.2959
        14        -0.1422      0.3799      0.0000
        15        -0.0000      0.0000      0.1444
        16        -0.1404     -0.3719      0.0000
        17         0.6370      1.3523     -0.0002
        18         0.0006      0.0012      0.2224
        19         0.0000      0.0000     -2.5057
        20        -0.2395     -0.1522      0.0000
        21         0.0472      0.1384     -0.0000
        22        -0.0000      0.0000     -0.8184
        23        -0.0475     -0.0765     -0.0000
        24         0.1957      0.4327     -0.0001
        25         0.0000      0.0000      0.2277
        26        -0.1483     -0.4685     -0.0000
        27        -0.0000      0.0000     -0.1902
        28        -0.1308      0.2272     -0.0000
        29         0.0000      0.0000     -0.8651
        30        -0.3758     -0.3201     -0.0000
        31        -0.0000     -0.0000      0.0984
        32        -0.1270     -0.4736      0.0000
        33         0.1067     -0.2946     -0.0000
        34         0.0000     -0.0001      0.8210
        35        -0.0457      0.2875      0.0003
        36        -0.2183     -0.5240      0.0000
        37        -0.0000     -0.0000     -1.2331
        38         0.0000      0.0000      0.3891
        39        -0.0000     -0.0001      0.3357
        40         0.0048      0.3971      0.0001
        41         0.0971      0.1204     -0.0000
        42         0.1425      0.6592     -0.0001
        43         0.0000     -0.0000      0.4256
        44         0.0000     -0.0000     -3.6793
        45         0.4445     -0.1289      0.0003
        46        -0.0000      0.0000     -2.2800
        47        -0.0430      0.3934      0.0004
        48        -0.0000     -0.0000      0.2316
        49        -0.2044     -0.9227     -0.0001
        50        -0.0000     -0.0000      0.1876
        51         0.1102      0.2606      0.0000
        52        -0.0000      0.0000     -0.6981
        53        -0.0000      0.0003     -0.1404
        54        -0.0085      0.4828      0.0002
        55         0.0000     -0.0000     -1.4450
        56         0.0547     -0.3191      0.0000
        57         0.0000     -0.0000     -0.8738
        58        -0.1150     -0.0578     -0.0000
        59        -0.0000      0.0000     -1.1367
        60         0.0000     -0.0000     -1.0176
        61        -0.3003     -0.4789     -0.0000
        62         0.3963      0.3168      0.0000
        63        -0.0000     -0.0000      0.4048
        64         0.0000     -0.0000     -0.3930
        65        -0.1117      0.2070     -0.0001
        66        -0.0000      0.0000      1.1021
        67        -0.0033      0.6997     -0.0000
        68         0.0477      0.1539     -0.0000
        69        -0.6248     -0.2870      0.0001
        70        -0.0001     -0.0000     -0.4436
        71         0.0000     -0.0000     -0.2527
        72         0.3807     -0.3974     -0.0001
        73         0.0000     -0.0000      0.9867
        74        -0.0000     -0.0000     -2.5196
        75        -0.2693      0.0897     -0.0000
        76        -0.4578      0.1124     -0.0000
        77         0.1616      0.1015      0.0000
        78        -0.0000     -0.0001     -1.1051
        79        -0.2122     -0.9719      0.0001
        80        -0.0000     -0.0000     -1.2336
        81        -0.0000     -0.0000     -0.4111
        82         0.2723      0.4245     -0.0000
        83        -0.0000     -0.0001      0.4676
        84         0.0000     -0.0000      0.2072
        85        -0.0000     -0.0000     -1.1815
        86        -0.1399     -0.6017      0.0001
        87        -0.0000     -0.0001      0.1773
        88         0.2793      1.0842      0.0000
        89         0.0760      0.9249     -0.0000
        90        -0.0640     -0.5768      0.0000
        91        -0.0000     -0.0000      0.6548
        92         0.0000     -0.0000     -3.7006
        93        -0.0486      0.0524      0.0002
        94         0.5119      0.4385      0.0000
        95         0.0002     -0.0000     -1.8649
        96         1.0572     -0.3754      0.0003
        97         0.0000      0.0000      0.1807
        98        -0.2569     -0.1572      0.0000
        99         0.0001      0.0000     -0.5012
       100         0.0673     -0.0293     -0.0000
       101         1.6425      0.8878      0.0001
       102        -0.0000     -0.0000     -0.5078
       103         0.0000     -0.0000      2.2813
       104        -0.4086     -0.0233      0.0002
       105        -0.0000     -0.0001      2.4414
       106         0.4827      0.3564     -0.0003
       107        -0.0001     -0.0001     -1.7224
       108        -0.4671     -0.5355     -0.0001
       109        -0.1508     -0.1553      0.0001
       110         0.0000     -0.0000      2.4417
       111         0.0000      0.0000     -0.3977
       112        -0.2520      0.5023      0.0000
       113         0.0001      0.0000      0.1943
       114        -0.2212      0.1560      0.0002
       115         0.0000     -0.0000     -1.8782
       116        -0.4234     -0.3073      0.0000
       117         0.4272      0.2274      0.0002
       118         0.0001      0.0000     -0.9162
       119         0.4033      0.1722      0.0000
       120         0.0000      0.0000      0.0893
       121        -0.0000     -0.0000     -1.6512
       122        -0.0000     -0.0000      2.2344
       123         0.0000      0.0001     -0.0036
       124         0.3837     -1.3415     -0.0000
       125        -0.0003     -0.0000     -1.6246
       126         1.5559      0.2717     -0.0002
       127        -0.0001     -0.0000      0.3792
       128         1.1203      0.3941      0.0000
       129        -0.6246      0.7867     -0.0001
       130        -0.5247      0.3514     -0.0000
       131        -0.0000      0.0000      0.9316
       132        -0.0000     -0.0000      0.7665
       133        -0.5858     -0.3845     -0.0001
       134        -1.1155     -0.1237     -0.0001
       135         0.7299     -0.1910      0.0001
       136        -0.0001      0.0001      1.1824
       137         0.4024     -0.0756      0.0001
       138        -0.0000      0.0000     -0.1141
       139         0.0000     -0.0001      0.4410
       140         0.0000      0.0000      0.7916
       141         0.0927      0.3983      0.0001
       142         0.0000     -0.0001      1.1784
       143        -0.0762      0.1657      0.0003
       144        -0.1242     -0.3943      0.0001
       145        -0.0648      1.0532      0.0002
       146        -0.0000     -0.0001      1.6512
       147        -0.1002      0.6656     -0.0001
       148        -0.0000     -0.0000     -0.7960
       149        -0.1083      0.4995     -0.0000
       150         0.0000     -0.0000     -1.1603
 Ground to excited state transition velocity quadrupole moments (Au):
       state          XX          YY          ZZ          XY          XZ          YZ
         1        -0.0000      0.0000     -0.0000      0.0000     -0.1368      0.0105
         2        20.9690      0.3745      0.0558     -1.2595      0.0000     -0.0000
         3       -11.8359     -0.2311     -0.0496      0.8832     -0.0000      0.0000
         4        -0.0001      0.0000      0.0000     -0.0000     -0.6095      0.0775
         5        -0.0000     -0.0000      0.0000     -0.0000     -0.5706      0.0652
         6         5.5578     -0.2315      0.0054      0.2526     -0.0001     -0.0000
         7         0.0001     -0.0000      0.0000     -0.0000      0.0004      0.0145
         8        10.9437      0.0316      0.0208     -1.1364     -0.0000      0.0000
         9        -0.0001      0.0000     -0.0000     -0.0000      0.5718     -0.0338
        10        -0.3393     -0.2986      0.0107      0.4838     -0.0000      0.0000
        11         3.0377      0.4231      0.0261     -0.9200      0.0000     -0.0000
        12        -0.0000      0.0000      0.0000      0.0000      1.0549     -0.0665
        13         0.2956      0.2711     -0.0144     -1.3476      0.0000      0.0000
        14         0.0000     -0.0000      0.0000      0.0000     -0.1060     -0.0861
        15         0.4776      0.1820     -0.0187      0.0351     -0.0000     -0.0000
        16         0.0000      0.0000     -0.0000     -0.0000      0.3819     -0.1271
        17         0.0002     -0.0000      0.0001     -0.0001     -1.4379      0.5361
        18        -0.3158      0.0091     -0.0717      0.1123     -0.0013      0.0005
        19         4.1600     -0.0684     -0.0508     -2.5951     -0.0000      0.0000
        20        -0.0000     -0.0000      0.0000      0.0000      0.1071     -0.1300
        21        -0.0000      0.0000      0.0000      0.0000     -0.0466     -0.0021
        22         1.5542     -0.0252      0.0200     -0.7462     -0.0000      0.0000
        23        -0.0001      0.0000     -0.0000     -0.0000      0.0415     -0.0404
        24        -0.0001     -0.0000      0.0000     -0.0000     -0.3035      0.0788
        25         0.6988      0.0446     -0.0519      0.1991     -0.0000      0.0000
        26        -0.0000     -0.0000      0.0000     -0.0000      0.4970     -0.0969
        27         0.2277      0.0529      0.0467     -0.1558     -0.0000     -0.0000
        28        -0.0000      0.0000     -0.0000      0.0000     -0.2579     -0.1264
        29         0.3974     -0.1517     -0.0233     -0.8846     -0.0000     -0.0000
        30         0.0000     -0.0000     -0.0000     -0.0000      0.1470     -0.1457
        31        -1.4426      0.0987      0.0613      0.0602      0.0000     -0.0000
        32         0.0001     -0.0000      0.0000      0.0000      0.5126     -0.1088
        33         0.0001     -0.0000      0.0000     -0.0000      0.3991      0.0319
        34         1.5451     -0.1492      0.0457      0.8395      0.0001      0.0000
        35         0.0007     -0.0001      0.0000      0.0003     -0.3631     -0.0009
        36         0.0000     -0.0000     -0.0000      0.0000      0.3336     -0.1126
        37         2.3535      0.5014      0.0039     -1.2590     -0.0000      0.0000
        38        -0.0391      0.0885     -0.0273      0.2390     -0.0000     -0.0000
        39        -0.3872      0.0381     -0.0048      0.3024      0.0000      0.0000
        40        -0.0001     -0.0000     -0.0000      0.0000     -0.3960     -0.0459
        41         0.0000      0.0000     -0.0000     -0.0000     -0.1928      0.0706
        42         0.0000     -0.0000      0.0000     -0.0001     -0.8810      0.1107
        43         0.5084     -0.0192     -0.0704      0.4421     -0.0000      0.0000
        44         6.2105      0.1340     -0.1269     -4.1573      0.0000      0.0000
        45        -0.0004     -0.0000      0.0000      0.0003     -0.0246      0.1223
        46         1.5739     -0.2443     -0.1364     -1.9634     -0.0000     -0.0000
        47        -0.0003      0.0000      0.0000      0.0003     -0.4435      0.0132
        48        -0.6247      0.0168      0.0343      0.2741      0.0000     -0.0000
        49         0.0001      0.0000     -0.0000     -0.0001      0.7293     -0.1784
        50        -0.5613      0.2532      0.0104      0.0978      0.0000     -0.0000
        51         0.0000     -0.0000      0.0000      0.0000     -0.4390      0.0930
        52        -0.9064      0.1564      0.0004     -0.4832     -0.0000      0.0000
        53         2.0536     -0.3019      0.0680     -0.1659     -0.0002     -0.0000
        54        -0.0013      0.0002     -0.0000      0.0002     -0.3435     -0.0587
        55        -1.4801      0.7714      0.0289     -1.3734      0.0000     -0.0000
        56        -0.0001     -0.0000     -0.0000      0.0001      0.1700     -0.0006
        57        -0.0511      0.5642     -0.0159     -0.8840      0.0000      0.0000
        58         0.0000      0.0000     -0.0000     -0.0000      0.0034     -0.0386
        59         2.7093      0.6849      0.0288     -1.2670     -0.0000     -0.0000
        60         1.6187      0.4197      0.0155     -1.2901      0.0000      0.0000
        61        -0.0000     -0.0000     -0.0000      0.0000      0.4497     -0.0387
        62        -0.0000     -0.0000      0.0000     -0.0000     -0.1919      0.0350
        63         1.8745     -0.0864     -0.0710      0.2373      0.0000     -0.0000
        64        -0.6777      0.0376      0.0822     -0.2849      0.0000      0.0000
        65        -0.0002     -0.0000      0.0000     -0.0000     -0.3143     -0.0495
        66        -0.3722      0.0926     -0.0369      1.0381     -0.0000      0.0000
        67         0.0000     -0.0000      0.0000     -0.0000     -0.5280      0.0506
        68         0.0000      0.0000      0.0000     -0.0000     -0.2008      0.1396
        69        -0.0000     -0.0000     -0.0000      0.0001      0.1500     -0.1835
        70         0.8809     -0.0475      0.0245     -0.6087      0.0000     -0.0000
        71        -0.5129      0.0492      0.0541     -0.2256      0.0000      0.0000
[...]
 Alpha virt. eigenvalues --    2.29659   2.29863   2.30729   2.30770   2.31182
 Alpha virt. eigenvalues --    2.31226   2.32247   2.32632   2.32702   2.33450
 Alpha virt. eigenvalues --    2.34128   2.34213   2.34540   2.34592   2.34915
 Alpha virt. eigenvalues --    2.34956   2.35136   2.35842   2.36397   2.36435
 Alpha virt. eigenvalues --    2.37460   2.37474   2.38847   2.39009   2.39319
 Alpha virt. eigenvalues --    2.39347   2.39966   2.40209   2.40417   2.40857
 Alpha virt. eigenvalues --    2.40952   2.41328   2.41488   2.42006   2.42492
 Alpha virt. eigenvalues --    2.42837   2.43034   2.43154   2.43445   2.43482
 Alpha virt. eigenvalues --    2.44295   2.44612   2.45307   2.45316   2.45849
 Alpha virt. eigenvalues --    2.46454   2.46690   2.46941   2.47347   2.48104
 Alpha virt. eigenvalues --    2.48186   2.48532   2.49110   2.49266   2.49327
 Alpha virt. eigenvalues --    2.49547   2.51303   2.51323   2.51720   2.51826
 Alpha virt. eigenvalues --    2.52544   2.52550   2.53020   2.53663   2.53796
 Alpha virt. eigenvalues --    2.54092   2.54391   2.54412   2.54884   2.54933
 Alpha virt. eigenvalues --    2.55433   2.55451   2.56406   2.56499   2.56554
 Alpha virt. eigenvalues --    2.56798   2.57162   2.57205   2.57943   2.57960
 Alpha virt. eigenvalues --    2.58131   2.59103   2.59264   2.59389   2.59584
 Alpha virt. eigenvalues --    2.59817   2.60093   2.60292   2.60930   2.61255
 Alpha virt. eigenvalues --    2.61423   2.61525   2.61723   2.61915   2.61941
 Alpha virt. eigenvalues --    2.62348   2.62423   2.62721   2.62972   2.63121
 Alpha virt. eigenvalues --    2.63325   2.63497   2.63790   2.64670   2.64851
 Alpha virt. eigenvalues --    2.65021   2.65088   2.65787   2.66273   2.66443
 Alpha virt. eigenvalues --    2.66523   2.66965   2.67391   2.67800   2.67924
 Alpha virt. eigenvalues --    2.68150   2.68897   2.69177   2.69215   2.69453
 Alpha virt. eigenvalues --    2.70211   2.70626   2.70632   2.71135   2.71709
 Alpha virt. eigenvalues --    2.71948   2.73575   2.73690   2.73721   2.74009
 Alpha virt. eigenvalues --    2.74467   2.74557   2.74638   2.74999   2.75061
 Alpha virt. eigenvalues --    2.75787   2.76118   2.76185   2.76317   2.76516
 Alpha virt. eigenvalues --    2.76825   2.76978   2.77266   2.77598   2.77884
 Alpha virt. eigenvalues --    2.77975   2.78022   2.78711   2.78947   2.79047
 Alpha virt. eigenvalues --    2.79734   2.79837   2.80045   2.80095   2.80203
 Alpha virt. eigenvalues --    2.81015   2.81699   2.82114   2.82449   2.83353
 Alpha virt. eigenvalues --    2.83563   2.83793   2.83890   2.84142   2.84237
 Alpha virt. eigenvalues --    2.84595   2.85606   2.85775   2.86063   2.86124
 Alpha virt. eigenvalues --    2.86488   2.86808   2.86997   2.87485   2.88746
 Alpha virt. eigenvalues --    2.89028   2.89508   2.89584   2.89704   2.89951
 Alpha virt. eigenvalues --    2.90035   2.90354   2.90629   2.91080   2.91098
 Alpha virt. eigenvalues --    2.91508   2.91611   2.92471   2.92529   2.92891
 Alpha virt. eigenvalues --    2.93413   2.93563   2.93664   2.94399   2.94445
 Alpha virt. eigenvalues --    2.95288   2.95537   2.95680   2.96569   2.96611
 Alpha virt. eigenvalues --    2.97116   2.97485   2.97598   2.97935   2.98982
 Alpha virt. eigenvalues --    2.99022   2.99422   3.00032   3.00283   3.00882
 Alpha virt. eigenvalues --    3.01554   3.02175   3.02353   3.03077   3.03476
 Alpha virt. eigenvalues --    3.03622   3.03887   3.04031   3.04259   3.04327
 Alpha virt. eigenvalues --    3.04526   3.04786   3.05471   3.05592   3.05811
 Alpha virt. eigenvalues --    3.06546   3.06761   3.07125   3.07292   3.07340
 Alpha virt. eigenvalues --    3.07685   3.08747   3.08791   3.09296   3.09320
 Alpha virt. eigenvalues --    3.09671   3.10379   3.10535   3.10590   3.10742
 Alpha virt. eigenvalues --    3.11081   3.11088   3.11117   3.11632   3.12200
 Alpha virt. eigenvalues --    3.12885   3.12894   3.12953   3.13129   3.13601
 Alpha virt. eigenvalues --    3.13765   3.14343   3.14507   3.14544   3.15097
 Alpha virt. eigenvalues --    3.15430   3.16424   3.16646   3.16683   3.16987
 Alpha virt. eigenvalues --    3.17063   3.17165   3.17242   3.18081   3.18733
 Alpha virt. eigenvalues --    3.18736   3.18780   3.19239   3.19518   3.19582
 Alpha virt. eigenvalues --    3.20090   3.20592   3.20774   3.20779   3.21108
 Alpha virt. eigenvalues --    3.21664   3.21987   3.22053   3.22229   3.22392
 Alpha virt. eigenvalues --    3.22616   3.22934   3.23388   3.23575   3.23741
 Alpha virt. eigenvalues --    3.24218   3.24677   3.25044   3.25495   3.25607
 Alpha virt. eigenvalues --    3.25956   3.26282   3.26528   3.26631   3.26980
 Alpha virt. eigenvalues --    3.27197   3.27236   3.27766   3.27844   3.28306
 Alpha virt. eigenvalues --    3.28384   3.28600   3.28764   3.28803   3.29438
 Alpha virt. eigenvalues --    3.29455   3.29846   3.29924   3.30214   3.30475
 Alpha virt. eigenvalues --    3.30565   3.30837   3.31021   3.31177   3.31886
 Alpha virt. eigenvalues --    3.31951   3.32270   3.32462   3.32624   3.33077
 Alpha virt. eigenvalues --    3.33235   3.33805   3.34217   3.34451   3.34618
 Alpha virt. eigenvalues --    3.34894   3.34983   3.35301   3.35372   3.35393
 Alpha virt. eigenvalues --    3.35756   3.35864   3.36350   3.36678   3.36758
 Alpha virt. eigenvalues --    3.36921   3.38004   3.38048   3.38209   3.38255
 Alpha virt. eigenvalues --    3.38274   3.39227   3.39311   3.39498   3.39774
 Alpha virt. eigenvalues --    3.40051   3.40192   3.40394   3.40805   3.41438
 Alpha virt. eigenvalues --    3.41908   3.42068   3.42395   3.42452   3.42924
 Alpha virt. eigenvalues --    3.43042   3.43526   3.43979   3.44352   3.45079
 Alpha virt. eigenvalues --    3.45287   3.46062   3.46721   3.47164   3.48015
 Alpha virt. eigenvalues --    3.48530   3.48641   3.48649   3.48742   3.49075
 Alpha virt. eigenvalues --    3.49110   3.49728   3.50010   3.50268   3.50581
 Alpha virt. eigenvalues --    3.51311   3.51465   3.51724   3.52102   3.52850
 Alpha virt. eigenvalues --    3.53156   3.53980   3.54023   3.54250   3.54358
 Alpha virt. eigenvalues --    3.54575   3.54642   3.55083   3.55305   3.55491
 Alpha virt. eigenvalues --    3.56092   3.56101   3.56818   3.57206   3.57427
 Alpha virt. eigenvalues --    3.57582   3.58570   3.58696   3.59240   3.59587
 Alpha virt. eigenvalues --    3.59771   3.59834   3.59957   3.60547   3.60758
 Alpha virt. eigenvalues --    3.61662   3.61822   3.62355   3.62626   3.63757
 Alpha virt. eigenvalues --    3.63907   3.64132   3.64187   3.64883   3.65593
 Alpha virt. eigenvalues --    3.66322   3.66401   3.67689   3.67831   3.68682
 Alpha virt. eigenvalues --    3.68836   3.69023   3.69956   3.70141   3.70188
 Alpha virt. eigenvalues --    3.70878   3.71007   3.71523   3.72554   3.72734
 Alpha virt. eigenvalues --    3.73047   3.73319   3.73648   3.74010   3.74067
 Alpha virt. eigenvalues --    3.74750   3.75480   3.76243   3.76440   3.77667
 Alpha virt. eigenvalues --    3.78548   3.78756   3.78950   3.79259   3.80582
 Alpha virt. eigenvalues --    3.80681   3.81157   3.81814   3.82361   3.82393
 Alpha virt. eigenvalues --    3.83455   3.83888   3.84152   3.84279   3.84459
 Alpha virt. eigenvalues --    3.84947   3.85514   3.86071   3.86682   3.87068
 Alpha virt. eigenvalues --    3.87321   3.87872   3.88327   3.88541   3.88574
 Alpha virt. eigenvalues --    3.89474   3.90009   3.91403   3.91469   3.92099
 Alpha virt. eigenvalues --    3.92423   3.94196   3.94262   3.95287   3.95471
 Alpha virt. eigenvalues --    3.96069   3.96073   3.96785   3.97506   3.97652
 Alpha virt. eigenvalues --    3.98234   3.98862   3.98986   4.00044   4.00165
 Alpha virt. eigenvalues --    4.00560   4.01211   4.01843   4.02435   4.04768
 Alpha virt. eigenvalues --    4.05102   4.05143   4.05267   4.06173   4.06616
 Alpha virt. eigenvalues --    4.08544   4.08575   4.09854   4.10065   4.10825
 Alpha virt. eigenvalues --    4.11289   4.11300   4.11358   4.11767   4.12126
 Alpha virt. eigenvalues --    4.12681   4.13502   4.13993   4.15605   4.15751
 Alpha virt. eigenvalues --    4.15932   4.16969   4.17038   4.17525   4.17871
 Alpha virt. eigenvalues --    4.18631   4.19602   4.20023   4.20176   4.20341
 Alpha virt. eigenvalues --    4.20584   4.21023   4.21901   4.22288   4.23023
 Alpha virt. eigenvalues --    4.23326   4.24111   4.24985   4.25044   4.25844
 Alpha virt. eigenvalues --    4.25923   4.27522   4.28323   4.28327   4.28483
 Alpha virt. eigenvalues --    4.29397   4.30025   4.30199   4.30486   4.31134
 Alpha virt. eigenvalues --    4.31680   4.31936   4.32398   4.33217   4.33447
 Alpha virt. eigenvalues --    4.33632   4.33638   4.33959   4.35247   4.35468
 Alpha virt. eigenvalues --    4.36448   4.36733   4.37495   4.37924   4.38572
 Alpha virt. eigenvalues --    4.38595   4.39496   4.40054   4.40062   4.41500
 Alpha virt. eigenvalues --    4.42535   4.42718   4.42866   4.43357   4.43563
 Alpha virt. eigenvalues --    4.43695   4.43837   4.44689   4.45212   4.45878
 Alpha virt. eigenvalues --    4.46492   4.46983   4.46993   4.47640   4.48392
 Alpha virt. eigenvalues --    4.48779   4.49631   4.49945   4.50373   4.50811
 Alpha virt. eigenvalues --    4.52222   4.52584   4.53026   4.54528   4.55835
 Alpha virt. eigenvalues --    4.55988   4.57463   4.57887   4.58625   4.58715
 Alpha virt. eigenvalues --    4.60134   4.60231   4.61605   4.62440   4.62457
 Alpha virt. eigenvalues --    4.62653   4.64949   4.65461   4.65558   4.67086
 Alpha virt. eigenvalues --    4.67361   4.67831   4.68011   4.68348   4.69103
 Alpha virt. eigenvalues --    4.70024   4.71069   4.73859   4.74070   4.75338
 Alpha virt. eigenvalues --    4.76050   4.76420   4.77483   4.78600   4.79685
 Alpha virt. eigenvalues --    4.80448   4.83173   4.83455   4.84342   4.84794
 Alpha virt. eigenvalues --    4.85587   4.88120   4.90062   4.90448   4.91000
 Alpha virt. eigenvalues --    4.91589   4.92658   4.93355   4.93917   4.94974
 Alpha virt. eigenvalues --    4.95848   4.95886   4.97293   4.98255   5.01462
 Alpha virt. eigenvalues --    5.02000   5.02985   5.03066   5.04936   5.05604
 Alpha virt. eigenvalues --    5.07137   5.09043   5.09497   5.10225   5.10809
 Alpha virt. eigenvalues --    5.11024   5.12427   5.13195   5.14066   5.15124
 Alpha virt. eigenvalues --    5.16350   5.17839   5.21340   5.21696   5.24144
 Alpha virt. eigenvalues --    5.24664   5.25725   5.26717   5.32141   5.33075
 Alpha virt. eigenvalues --    5.42184   5.45994   5.51918   5.52024   5.58617
 Alpha virt. eigenvalues --    5.59098   5.60309   5.61145  22.43967  22.51578
 Alpha virt. eigenvalues --   22.51714  22.53205  22.53410  22.54511  22.54671
 Alpha virt. eigenvalues --   22.54765  22.57696  22.57876  22.62085  22.62152
 Alpha virt. eigenvalues --   22.64867  22.65060  22.65418  22.68564  22.69163
 Alpha virt. eigenvalues --   22.70398  22.71456  22.71982  22.73160  22.79956
 Alpha virt. eigenvalues --   22.81220  22.81787  22.82582  22.82885  22.87319
 Alpha virt. eigenvalues --   22.88748  22.90071  22.90771  22.91335  22.92564
 Alpha virt. eigenvalues --   22.96773  22.97561  23.13908  23.18820  23.23543
 Alpha virt. eigenvalues --   23.25327  23.42136  23.42140
          Condensed to atoms (all electrons):
 Mulliken charges:
               1
     1  C   -0.363786
     2  C   -0.326447
     3  C   -0.328992
     4  C    0.108094
     5  C   -0.028858
     6  C    0.001965
     7  C   -0.198222
     8  C   -0.223104
     9  C    0.057046
    10  C   -0.179868
    11  C   -0.189033
    12  C   -0.234354
    13  C    0.092966
    14  C   -0.161146
    15  C   -0.209895
    16  C   -0.209894
    17  C   -0.161146
    18  C    0.092966
    19  C   -0.234354
    20  C   -0.189033
    21  C   -0.179867
    22  C    0.057045
    23  C   -0.223104
    24  C   -0.198222
    25  C   -0.028859
    26  C    0.001965
    27  C   -0.498410
    28  C   -0.491873
    29  C   -0.583212
    30  C   -0.363785
    31  C   -0.326447
    32  C   -0.328992
    33  C    0.108093
    34  C   -0.498410
    35  C   -0.491874
    36  C   -0.583213
    37  C   -0.570720
    38  C   -0.564712
    39  C   -0.564712
    40  C   -0.570721
    41  H    0.172646
    42  H    0.174746
    43  H    0.162670
    44  H    0.164482
    45  H    0.180871
    46  H    0.174850
    47  H    0.202677
    48  H    0.183073
    49  H    0.172465
    50  H    0.189307
    51  H    0.171414
    52  H    0.175026
    53  H    0.165512
    54  H    0.165512
    55  H    0.175026
    56  H    0.171415
    57  H    0.189307
    58  H    0.172465
    59  H    0.183073
    60  H    0.202678
    61  H    0.171167
    62  H    0.168877
    63  H    0.161795
    64  H    0.163447
    65  H    0.166619
    66  H    0.166909
    67  H    0.172481
    68  H    0.173341
    69  H    0.195648
    70  H    0.174746
    71  H    0.172645
    72  H    0.162670
    73  H    0.164482
    74  H    0.180871
    75  H    0.174850
    76  H    0.168877
    77  H    0.161795
    78  H    0.171167
    79  H    0.163447
    80  H    0.166619
    81  H    0.166909
    82  H    0.172481
    83  H    0.173341
    84  H    0.195647
    85  H    0.183109
    86  H    0.164435
    87  H    0.183184
    88  H    0.182952
    89  H    0.165927
    90  H    0.182931
    91  H    0.182930
    92  H    0.182952
    93  H    0.165927
    94  H    0.164436
    95  H    0.183184
    96  H    0.183108
 Sum of Mulliken charges =  -0.00000
 Mulliken charges with hydrogens summed into heavy atoms:
               1
     1  C   -0.016393
     2  C    0.000705
     3  C    0.026729
     4  C    0.108094
     5  C   -0.028858
     6  C    0.001965
     7  C    0.004455
     8  C   -0.040032
     9  C    0.057046
    10  C   -0.007403
    11  C    0.000274
    12  C   -0.062939
    13  C    0.092966
    14  C    0.013880
    15  C   -0.044382
    16  C   -0.044382
    17  C    0.013880
    18  C    0.092966
    19  C   -0.062939
    20  C    0.000274
    21  C   -0.007403
    22  C    0.057045
    23  C   -0.040031
    24  C    0.004456
    25  C   -0.028859
    26  C    0.001965
    27  C    0.003430
    28  C    0.005102
    29  C   -0.041742
    30  C   -0.016393
    31  C    0.000705
    32  C    0.026729
    33  C    0.108093
    34  C    0.003430
    35  C    0.005102
    36  C   -0.041743
    37  C   -0.039993
    38  C   -0.032902
    39  C   -0.032902
    40  C   -0.039993
 Electronic spatial extent (au):  <R**2>=         104487.6773
 Charge=             -0.0000 electrons
 Dipole moment (field-independent basis, Debye):
    X=              0.0000    Y=             -0.0000    Z=             -0.5416  Tot=              0.5416
 Quadrupole moment (field-independent basis, Debye-Ang):
   XX=           -156.9222   YY=           -225.8416   ZZ=           -264.4259
   XY=            -15.1139   XZ=             -0.0002   YZ=              0.0000
 Traceless Quadrupole moment (field-independent basis, Debye-Ang):
   XX=             58.8077   YY=            -10.1117   ZZ=            -48.6960
   XY=            -15.1139   XZ=             -0.0002   YZ=              0.0000
 Octapole moment (field-independent basis, Debye-Ang**2):
  XXX=              0.0055  YYY=              0.0002  ZZZ=             -7.0406  XYY=              0.0002
  XXY=             -0.0005  XXZ=            -99.2151  XZZ=              0.0001  YZZ=             -0.0000
  YYZ=              0.3108  XYZ=             13.2601
 Hexadecapole moment (field-independent basis, Debye-Ang**3):
 XXXX=        -115940.9015 YYYY=          -4019.2556 ZZZZ=           -852.7486 XXXY=          -1919.8532
 XXXZ=             -0.0367 YYYX=           -233.6505 YYYZ=             -0.0001 ZZZX=             -0.0016
 ZZZY=             -0.0000 XXYY=         -22866.7888 XXZZ=         -24518.7744 YYZZ=           -839.8986
 XXYZ=              0.0041 YYXZ=              0.0000 ZZXY=            -20.9741
 N-N= 3.637152187714D+03 E-N=-1.088202669165D+04  KE= 1.548448940600D+03
 Unable to Open any file for archive entry.
 1\1\GINC-CN03\SP\RM062X TD-FC\def2TZVP\C40H56\2100011873\06-Nov-2023\0
 \\# td=(nstates=150) M062X/def2TZVP scrf(smd, solvent=ethanol)\\B-1\\0
 ,1\C,0,-13.193247,-1.96518,0.357514\C,0,-14.150234,-1.366297,-0.666837
 \C,0,-14.19793,0.145886,-0.469985\C,0,-12.839886,0.781119,-0.265942\C,
 0,-11.699193,0.069117,-0.020535\C,0,-11.734254,-1.463294,0.19794\C,0,-
 10.43464,0.808638,0.027915\C,0,-9.147698,0.368486,0.051934\C,0,-7.9709
 78,1.218813,0.064023\C,0,-6.738479,0.618773,0.069992\C,0,-5.445845,1.2
 38015,0.078209\C,0,-4.280328,0.525977,0.08121\C,0,-2.942601,1.063627,0
 .086009\C,0,-1.885522,0.185039,0.0869\C,0,-0.488362,0.47987,0.088382\C
 ,0,0.488364,-0.479879,0.088381\C,0,1.885523,-0.185049,0.086901\C,0,2.9
 42603,-1.063636,0.08601\C,0,4.28033,-0.525984,0.08121\C,0,5.445847,-1.
 238022,0.078205\C,0,6.73848,-0.618778,0.069986\C,0,7.97098,-1.218816,0
 .064016\C,0,9.147699,-0.368486,0.051926\C,0,10.434641,-0.808636,0.0279
 11\C,0,11.699193,-0.069112,-0.020539\C,0,11.734248,1.463299,0.197935\C
 ,0,-11.0146,-1.853868,1.513234\C,0,-11.087577,-2.209256,-0.996377\C,0,
 -12.878927,2.293643,-0.398885\C,0,13.193238,1.965187,0.357525\C,0,14.1
 50237,1.366308,-0.666817\C,0,14.197934,-0.145875,-0.469969\C,0,12.8398
 89,-0.781111,-0.265939\C,0,11.014576,1.85387,1.51322\C,0,11.087582,2.2
 09257,-0.996389\C,0,12.878932,-2.293635,-0.398883\C,0,8.156563,-2.7171
 8,0.068498\C,0,2.769507,-2.564242,0.088788\C,0,-2.769504,2.564233,0.08
 879\C,0,-8.156557,2.717177,0.068503\H,0,-13.55224,-1.704444,1.363722\H
 ,0,-13.191791,-3.061587,0.302962\H,0,-15.153148,-1.798268,-0.563053\H,
 0,-13.813091,-1.597755,-1.685187\H,0,-14.836732,0.392637,0.395545\H,0,
 -14.68517,0.631298,-1.328645\H,0,-10.553209,1.886254,-0.000126\H,0,-8.
 931571,-0.694424,0.048253\H,0,-6.727188,-0.472294,0.066595\H,0,-5.3941
 9,2.323329,0.080545\H,0,-4.354073,-0.562407,0.078511\H,0,-2.136434,-0.
 876729,0.085263\H,0,-0.172471,1.5217,0.088524\H,0,0.172472,-1.521709,0
 .088521\H,0,2.136435,0.87672,0.085267\H,0,4.354074,0.5624,0.078514\H,0
 ,5.394193,-2.323335,0.080538\H,0,6.727188,0.472289,0.066588\H,0,8.9315
 68,0.694423,0.04824\H,0,10.553213,-1.886252,-0.000123\H,0,-11.41656,-1
 .280584,2.356412\H,0,-11.183965,-2.918133,1.720013\H,0,-9.93616,-1.690
 871,1.488587\H,0,-10.062275,-1.88498,-1.187807\H,0,-11.067226,-3.28877
 9,-0.800274\H,0,-11.653135,-2.045583,-1.919919\H,0,-13.913764,2.64896,
 -0.350635\H,0,-12.32451,2.809583,0.392139\H,0,-12.468777,2.633235,-1.3
 60075\H,0,13.19178,3.061594,0.302976\H,0,13.552222,1.70445,1.363737\H,
 0,15.153149,1.798281,-0.563022\H,0,13.813104,1.597768,-1.68517\H,0,14.
 836727,-0.392627,0.395567\H,0,14.685183,-0.631285,-1.328625\H,0,11.183
 932,2.918136,1.719999\H,0,9.936137,1.690867,1.488558\H,0,11.416527,1.2
 80589,2.356403\H,0,10.062283,1.884978,-1.18783\H,0,11.067226,3.288781,
 -0.800288\H,0,11.65315,2.045585,-1.919926\H,0,13.913771,-2.648951,-0.3
 50639\H,0,12.324521,-2.809577,0.392144\H,0,12.468777,-2.633229,-1.3600
 71\H,0,8.744087,-3.036457,0.93873\H,0,7.209146,-3.257946,0.093047\H,0,
 8.704221,-3.047232,-0.823677\H,0,3.248036,-3.011075,0.969534\H,0,1.721
 47,-2.868026,0.092705\H,0,3.242385,-3.013831,-0.793611\H,0,-3.242396,3
 .013825,-0.7936\H,0,-3.248019,3.011063,0.969546\H,0,-1.721466,2.868016
 ,0.092692\H,0,-7.20914,3.257941,0.093061\H,0,-8.704208,3.04723,-0.8236
 77\H,0,-8.744089,3.036455,0.93873\\Version=ES64L-G16RevC.02\State=1-A\
 HF=-1557.7397098\RMSD=9.839e-09\PG=C01 [X(C40H56)]\\@
 The archive entry for this job was punched.


      LET US REMEMBER, PLEASE, THAT THE SEARCH FOR THE CONSTITUTION
      OF THE WORLD IS ONE OF THE GREATEST AND NOBLEST PROBLEMS PRESENTED 
      BY NATURE.

                                                  -- GALILEO
 Job cpu time:      11 days 12 hours 27 minutes 42.6 seconds.
 Elapsed time:       0 days 11 hours 19 minutes  8.9 seconds.
 File lengths (MBytes):  RWF=  94400 Int=      0 D2E=      0 Chk=  10128 Scr=     32
 Normal termination of Gaussian 16 at Mon Nov  6 19:30:56 2023.
