 Entering Gaussian System, Link 0=g16
 Initial command:
 /nfs-share/home/2100011873/Gaussian16_AVX2/g16/l1.exe "/nfs-share/home/2100011873/GaussTmp/Gau-254838.inp" -scrdir="/nfs-share/home/2100011873/GaussTmp/"
 Entering Link 1 = /nfs-share/home/2100011873/Gaussian16_AVX2/g16/l1.exe PID=    254839.
  
 Copyright (c) 1988-2021, Gaussian, Inc.  All Rights Reserved.
  
 This is part of the Gaussian(R) 16 program.  It is based on
 the Gaussian(R) 09 system (copyright 2009, Gaussian, Inc.),
 the Gaussian(R) 03 system (copyright 2003, Gaussian, Inc.),
 the Gaussian(R) 98 system (copyright 1998, Gaussian, Inc.),
 the Gaussian(R) 94 system (copyright 1995, Gaussian, Inc.),
 the Gaussian 92(TM) system (copyright 1992, Gaussian, Inc.),
 the Gaussian 90(TM) system (copyright 1990, Gaussian, Inc.),
 the Gaussian 88(TM) system (copyright 1988, Gaussian, Inc.),
 the Gaussian 86(TM) system (copyright 1986, Carnegie Mellon
 University), and the Gaussian 82(TM) system (copyright 1983,
 Carnegie Mellon University). Gaussian is a federally registered
 trademark of Gaussian, Inc.
  
 This software contains proprietary and confidential information,
 including trade secrets, belonging to Gaussian, Inc.
  
 This software is provided under written license and may be
 used, copied, transmitted, or stored only in accord with that
 written license.
  
 The following legend is applicable only to US Government
 contracts under FAR:
  
                    RESTRICTED RIGHTS LEGEND
  
 Use, reproduction and disclosure by the US Government is
 subject to restrictions as set forth in subparagraphs (a)
 and (c) of the Commercial Computer Software - Restricted
 Rights clause in FAR 52.227-19.
  
 Gaussian, Inc.
 340 Quinnipiac St., Bldg. 40, Wallingford CT 06492
  
  
 ---------------------------------------------------------------
 Warning -- This program may not be used in any manner that
 competes with the business of Gaussian, Inc. or will provide
 assistance to any competitor of Gaussian, Inc.  The licensee
 of this program is prohibited from giving any competitor of
 Gaussian, Inc. access to this program.  By using this program,
 the user acknowledges that Gaussian, Inc. is engaged in the
 business of creating and licensing software in the field of
 computational chemistry and represents and warrants to the
 licensee that it is not a competitor of Gaussian, Inc. and that
 it will not use this program in any manner prohibited above.
 ---------------------------------------------------------------
  

 Cite this work as:
 Gaussian 16, Revision C.02,
 M. J. Frisch, G. W. Trucks, H. B. Schlegel, G. E. Scuseria, 
 M. A. Robb, J. R. Cheeseman, G. Scalmani, V. Barone, 
 G. A. Petersson, H. Nakatsuji, X. Li, M. Caricato, A. V. Marenich, 
 J. Bloino, B. G. Janesko, R. Gomperts, B. Mennucci, H. P. Hratchian, 
 J. V. Ortiz, A. F. Izmaylov, J. L. Sonnenberg, D. Williams-Young, 
 F. Ding, F. Lipparini, F. Egidi, J. Goings, B. Peng, A. Petrone, 
 T. Henderson, D. Ranasinghe, V. G. Zakrzewski, J. Gao, N. Rega, 
 G. Zheng, W. Liang, M. Hada, M. Ehara, K. Toyota, R. Fukuda, 
 J. Hasegawa, M. Ishida, T. Nakajima, Y. Honda, O. Kitao, H. Nakai, 
 T. Vreven, K. Throssell, J. A. Montgomery, Jr., J. E. Peralta, 
 F. Ogliaro, M. J. Bearpark, J. J. Heyd, E. N. Brothers, K. N. Kudin, 
 V. N. Staroverov, T. A. Keith, R. Kobayashi, J. Normand, 
 K. Raghavachari, A. P. Rendell, J. C. Burant, S. S. Iyengar, 
 J. Tomasi, M. Cossi, J. M. Millam, M. Klene, C. Adamo, R. Cammi, 
 J. W. Ochterski, R. L. Martin, K. Morokuma, O. Farkas, 
 J. B. Foresman, and D. J. Fox, Gaussian, Inc., Wallingford CT, 2019.
 
 ******************************************
 Gaussian 16:  ES64L-G16RevC.02  7-Dec-2021
                 5-Nov-2023 
 ******************************************
 %nprocshared=36
 Will use up to   36 processors via shared memory.
 %mem=128GB
 ------------------------------------------------------------
 # td=(nstates=150) M062X/def2TZVP scrf(smd, solvent=ethanol)
 ------------------------------------------------------------
 1/38=1,172=1/1;
 2/12=2,17=6,18=5,40=1/2;
 3/5=44,7=101,11=9,25=1,30=1,70=32201,72=4,74=-55/1,2,3,8;
 4//1;
 5/5=2,38=5,53=4/2;
 8/6=1,10=1,108=150/1;
 9/41=150,42=1,70=2/14;
 6/7=2,8=2,9=2,10=2/1;
 99/5=1,9=1/99;
 ---
 A-4
 ---
 Symbolic Z-matrix:
 Charge =  1 Multiplicity = 1
 C                    -3.66371  -1.05195  -0.11156 
 C                    -2.38964  -0.47998  -0.08346 
 C                    -1.19497  -1.195    -0.06404 
 C                     0.05835  -0.57832  -0.03561 
 C                    -4.85534  -0.32376  -0.12489 
 S                    -4.92666   1.43671  -0.06062 
 C                    -6.68823   1.40203  -0.08329 
 C                    -7.15496   0.07936  -0.13945 
 N                    -6.11186  -0.85727  -0.18359 
 C                    -7.56515   2.4827   -0.04892 
 C                    -8.93496   2.22022  -0.06579 
 C                    -9.40707   0.90276  -0.11322 
 C                    -8.52936  -0.17953  -0.14882 
 C                    -6.36628  -2.30687  -0.24831 
 C                    -6.46714  -2.95588   1.13326 
 C                     1.28216  -1.24609  -0.01605 
 C                     2.51113  -0.58289   0.01194 
 C                     3.74122  -1.24435  -0.00844 
 C                     5.05244  -0.74902   0.00881 
 S                     6.36259  -1.86699  -0.36529 
 C                     7.56298  -0.60081  -0.16552 
 C                     6.94102   0.61236   0.16985 
 N                     5.54483   0.4953    0.28326 
 C                     8.94627  -0.69554  -0.30211 
 C                     9.70836   0.45414  -0.1007 
 C                     9.09298   1.66866   0.22877 
 C                     7.70945   1.76455   0.3665 
 C                     4.73281   1.62303   0.77014 
 C                     4.28228   2.56989  -0.34424 
 H                    -3.73183  -2.13483  -0.11343 
 H                    -2.31025   0.60799  -0.07629 
 H                    -1.23762  -2.28343  -0.07261 
 H                     0.07916   0.51298  -0.02766 
 H                    -7.19294   3.50135  -0.00844 
 H                    -9.63821   3.04629  -0.03843 
 H                    -10.47604   0.71486  -0.1197 
 H                    -8.91454  -1.19267  -0.17489 
 H                    -7.28921  -2.44204  -0.81662 
 H                    -5.57073  -2.7575   -0.84565 
 H                    -6.66636  -4.02676   1.02338 
 H                    -5.53664  -2.83556   1.69652 
 H                    -7.28005  -2.51465   1.718 
 H                     1.27987  -2.33528  -0.02423 
 H                     2.47239   0.50228   0.01364 
 H                     3.69108  -2.32677  -0.1054 
 H                     9.41663  -1.63929  -0.55871 
 H                     10.78759   0.40544  -0.2035 
 H                     9.70031   2.55586   0.37729 
 H                     7.25129   2.71614   0.61119 
 H                     3.88711   1.20264   1.31689 
 H                     5.34278   2.15493   1.50515 
 H                     3.66872   2.05491  -1.08995 
 H                     3.6925    3.38719   0.08394 
 H                     5.14149   3.00595  -0.86259 
 
 Stoichiometry    C25H25N2S2(1+)
 Framework group  C1[X(C25H25N2S2)]
 Deg. of freedom   156
 Full point group                 C1      NOp   1
 Largest Abelian subgroup         C1      NOp   1
 Largest concise Abelian subgroup C1      NOp   1
                         Standard orientation:                         
 ---------------------------------------------------------------------
 Center     Atomic      Atomic             Coordinates (Angstroms)
 Number     Number       Type             X           Y           Z
 ---------------------------------------------------------------------
      1          6           0       -3.663712   -1.051948   -0.111557
      2          6           0       -2.389638   -0.479979   -0.083458
      3          6           0       -1.194967   -1.195004   -0.064041
      4          6           0        0.058349   -0.578322   -0.035613
      5          6           0       -4.855344   -0.323764   -0.124892
      6         16           0       -4.926662    1.436711   -0.060618
      7          6           0       -6.688233    1.402029   -0.083292
      8          6           0       -7.154955    0.079357   -0.139452
      9          7           0       -6.111858   -0.857268   -0.183590
     10          6           0       -7.565153    2.482703   -0.048916
     11          6           0       -8.934956    2.220220   -0.065794
     12          6           0       -9.407072    0.902760   -0.113224
     13          6           0       -8.529361   -0.179533   -0.148820
     14          6           0       -6.366284   -2.306872   -0.248314
     15          6           0       -6.467137   -2.955883    1.133259
     16          6           0        1.282162   -1.246091   -0.016052
     17          6           0        2.511127   -0.582889    0.011938
     18          6           0        3.741215   -1.244345   -0.008435
     19          6           0        5.052439   -0.749020    0.008808
     20         16           0        6.362590   -1.866987   -0.365292
     21          6           0        7.562983   -0.600806   -0.165520
     22          6           0        6.941017    0.612357    0.169846
     23          7           0        5.544832    0.495298    0.283261
     24          6           0        8.946272   -0.695535   -0.302110
     25          6           0        9.708364    0.454142   -0.100703
     26          6           0        9.092982    1.668657    0.228770
     27          6           0        7.709445    1.764545    0.366500
     28          6           0        4.732809    1.623027    0.770139
     29          6           0        4.282282    2.569892   -0.344236
     30          1           0       -3.731831   -2.134826   -0.113428
     31          1           0       -2.310249    0.607987   -0.076294
     32          1           0       -1.237617   -2.283434   -0.072611
     33          1           0        0.079156    0.512977   -0.027655
     34          1           0       -7.192939    3.501353   -0.008437
     35          1           0       -9.638205    3.046285   -0.038434
     36          1           0      -10.476042    0.714855   -0.119701
     37          1           0       -8.914544   -1.192671   -0.174894
     38          1           0       -7.289207   -2.442036   -0.816617
     39          1           0       -5.570728   -2.757498   -0.845647
     40          1           0       -6.666359   -4.026758    1.023381
     41          1           0       -5.536643   -2.835556    1.696522
     42          1           0       -7.280055   -2.514652    1.717995
     43          1           0        1.279871   -2.335280   -0.024232
     44          1           0        2.472390    0.502280    0.013643
     45          1           0        3.691082   -2.326769   -0.105404
     46          1           0        9.416627   -1.639291   -0.558710
     47          1           0       10.787594    0.405440   -0.203502
     48          1           0        9.700309    2.555856    0.377290
     49          1           0        7.251286    2.716142    0.611187
     50          1           0        3.887111    1.202637    1.316886
     51          1           0        5.342782    2.154926    1.505154
     52          1           0        3.668719    2.054906   -1.089954
     53          1           0        3.692500    3.387191    0.083941
     54          1           0        5.141488    3.005946   -0.862588
 ---------------------------------------------------------------------
 Rotational constants (GHZ):           0.5052897           0.0306476           0.0290656
 Standard basis: def2TZVP (5D, 7F)
 There are  1206 symmetry adapted cartesian basis functions of A   symmetry.
 There are  1061 symmetry adapted basis functions of A   symmetry.
  1061 basis functions,  1715 primitive gaussians,  1206 cartesian basis functions
   110 alpha electrons      110 beta electrons
       nuclear repulsion energy      2585.8618479399 Hartrees.
 NAtoms=   54 NActive=   54 NUniq=   54 SFac= 1.00D+00 NAtFMM=   60 NAOKFM=F Big=F
 Integral buffers will be    131072 words long.
 Regular integral format.
 Two-electron integral symmetry is turned on.
 ------------------------------------------------------------------------------
 Polarizable Continuum Model (PCM)
 =================================
 Model                : PCM.
 Atomic radii         : SMD-Coulomb.
 Polarization charges : Total charges.
 Charge compensation  : None.
 Solution method      : On-the-fly selection.
 Cavity type          : VdW (van der Waals Surface) (Alpha=1.000).
 Cavity algorithm     : GePol (No added spheres)
                        Default sphere list used, NSphG=   54.
                        Lebedev-Laikov grids with approx.  5.0 points / Ang**2.
                        Smoothing algorithm: York/Karplus (Gamma=1.0000).
                        Polarization charges: spherical gaussians, with
                                              point-specific exponents (IZeta= 3).
                        Self-potential: point-specific (ISelfS= 7).
                        Self-field    : sphere-specific E.n sum rule (ISelfD= 2).
 Solvent              : Ethanol, Eps=  24.852000 Eps(inf)=   1.852593
 ------------------------------------------------------------------------------
 ------------------------------------------------------------------------------
 Atomic radii for non-electrostatic terms: SMD-CDS.
 ------------------------------------------------------------------------------
 Nuclear repulsion after PCM non-electrostatic terms =     2585.8550298034 Hartrees.
 One-electron integrals computed using PRISM.
   1 Symmetry operations used in ECPInt.
 ECPInt:  NShTT=   89676 NPrTT=  277881 LenC2=   56315 LenP2D=  119243.
 LDataN:  DoStor=T MaxTD1= 6 Len=  172
 NBasis=  1061 RedAO= T EigKep=  7.12D-06  NBF=  1061
 NBsUse=  1061 1.00D-06 EigRej= -1.00D+00 NBFU=  1061
 ExpMin= 9.52D-02 ExpMax= 6.07D+04 ExpMxC= 2.07D+03 IAcc=3 IRadAn=         5 AccDes= 0.00D+00
 Harris functional with IExCor= 1009 and IRadAn=       5 diagonalized for initial guess.
 HarFok:  IExCor= 1009 AccDes= 0.00D+00 IRadAn=         5 IDoV= 1 UseB2=F ITyADJ=14
 ICtDFT=  3500011 ScaDFX=  1.000000  1.000000  1.000000  1.000000
 FoFCou: FMM=F IPFlag=           0 FMFlag=      100000 FMFlg1=           0
         NFxFlg=           0 DoJE=T BraDBF=F KetDBF=T FulRan=T
         wScrn=  0.000000 ICntrl=       500 IOpCl=  0 I1Cent=   200000004 NGrid=           0
         NMat0=    1 NMatS0=      1 NMatT0=    0 NMatD0=    1 NMtDS0=    0 NMtDT0=    0
 Petite list used in FoFCou.
 Requested convergence on RMS density matrix=1.00D-08 within 128 cycles.
 Requested convergence on MAX density matrix=1.00D-06.
 Requested convergence on             energy=1.00D-06.
 No special actions if energy rises.
 Inv3:  Mode=1 IEnd=    53425200.
 Iteration    1 A*A^-1 deviation from unit magnitude is 3.55D-15 for    321.
 Iteration    1 A*A^-1 deviation from orthogonality  is 2.05D-15 for   1735    753.
 Iteration    1 A^-1*A deviation from unit magnitude is 3.33D-15 for    321.
 Iteration    1 A^-1*A deviation from orthogonality  is 3.33D-15 for    636    388.
 Error on total polarization charges =  0.07093
 SCF Done:  E(RM062X) =  -1873.37918906     A.U. after   16 cycles
            NFock= 16  Conv=0.56D-08     -V/T= 2.0039
 SMD-CDS (non-electrostatic) energy       (kcal/mol) =      -4.28
 (included in total energy above)
 DoSCS=F DFT=T ScalE2(SS,OS)=  1.000000  1.000000
 ExpMin= 9.52D-02 ExpMax= 6.07D+04 ExpMxC= 2.07D+03 IAcc=3 IRadAn=         5 AccDes= 0.00D+00
 HarFok:  IExCor=  205 AccDes= 0.00D+00 IRadAn=         5 IDoV=-2 UseB2=F ITyADJ=14
 ICtDFT= 12500011 ScaDFX=  1.000000  1.000000  1.000000  1.000000
 GSVD:  LWork=       -1665 too small for GESVD, short by        7400 words or        7400 for optimal perf.
 Range of M.O.s used for correlation:    38  1061
 NBasis=  1061 NAE=   110 NBE=   110 NFC=    37 NFV=     0
 NROrb=   1024 NOA=    73 NOB=    73 NVA=   951 NVB=   951

 **** Warning!!: The largest alpha MO coefficient is  0.46032920D+02

 NEqPCM:  Using non-equilibrium solvation (IEInf=1, Eps=  24.8520, EpsInf=   1.8526)
 Inv3:  Mode=1 IEnd=    53425200.
 Iteration    1 A*A^-1 deviation from unit magnitude is 3.33D-15 for   3435.
 Iteration    1 A*A^-1 deviation from orthogonality  is 1.79D-15 for   2030   1791.
 Iteration    1 A^-1*A deviation from unit magnitude is 3.33D-15 for   3435.
 Iteration    1 A^-1*A deviation from orthogonality  is 2.47D-15 for   1749    718.
 Orbital symmetries:
       Occupied  (A) (A) (A) (A) (A) (A) (A) (A) (A) (A) (A) (A)
                 (A) (A) (A) (A) (A) (A) (A) (A) (A) (A) (A) (A)
                 (A) (A) (A) (A) (A) (A) (A) (A) (A) (A) (A) (A)
                 (A) (A) (A) (A) (A) (A) (A) (A) (A) (A) (A) (A)
                 (A) (A) (A) (A) (A) (A) (A) (A) (A) (A) (A) (A)
                 (A) (A) (A) (A) (A) (A) (A) (A) (A) (A) (A) (A)
                 (A) (A) (A) (A) (A) (A) (A) (A) (A) (A) (A) (A)
                 (A) (A) (A) (A) (A) (A) (A) (A) (A) (A) (A) (A)
                 (A) (A) (A) (A) (A) (A) (A) (A) (A) (A) (A) (A)
                 (A) (A)
       Virtual   (A) (A) (A) (A) (A) (A) (A) (A) (A) (A) (A) (A)
                 (A) (A) (A) (A) (A) (A) (A) (A) (A) (A) (A) (A)
                 (A) (A) (A) (A) (A) (A) (A) (A) (A) (A) (A) (A)
                 (A) (A) (A) (A) (A) (A) (A) (A) (A) (A) (A) (A)
                 (A) (A) (A) (A) (A) (A) (A) (A) (A) (A) (A) (A)
                 (A) (A) (A) (A) (A) (A) (A) (A) (A) (A) (A) (A)
                 (A) (A) (A) (A) (A) (A) (A) (A) (A) (A) (A) (A)
                 (A) (A) (A) (A) (A) (A) (A) (A) (A) (A) (A) (A)
                 (A) (A) (A) (A) (A) (A) (A) (A) (A) (A) (A) (A)
                 (A) (A) (A) (A) (A) (A) (A) (A) (A) (A) (A) (A)
                 (A) (A) (A) (A) (A) (A) (A) (A) (A) (A) (A) (A)
                 (A) (A) (A) (A) (A) (A) (A) (A) (A) (A) (A) (A)
                 (A) (A) (A) (A) (A) (A) (A) (A) (A) (A) (A) (A)
                 (A) (A) (A) (A) (A) (A) (A) (A) (A) (A) (A) (A)
                 (A) (A) (A) (A) (A) (A) (A) (A) (A) (A) (A) (A)
                 (A) (A) (A) (A) (A) (A) (A) (A) (A) (A) (A) (A)
                 (A) (A) (A) (A) (A) (A) (A) (A) (A) (A) (A) (A)
                 (A) (A) (A) (A) (A) (A) (A) (A) (A) (A) (A) (A)
                 (A) (A) (A) (A) (A) (A) (A) (A) (A) (A) (A) (A)
                 (A) (A) (A) (A) (A) (A) (A) (A) (A) (A) (A) (A)
                 (A) (A) (A) (A) (A) (A) (A) (A) (A) (A) (A) (A)
                 (A) (A) (A) (A) (A) (A) (A) (A) (A) (A) (A) (A)
                 (A) (A) (A) (A) (A) (A) (A) (A) (A) (A) (A) (A)
                 (A) (A) (A) (A) (A) (A) (A) (A) (A) (A) (A) (A)
                 (A) (A) (A) (A) (A) (A) (A) (A) (A) (A) (A) (A)
                 (A) (A) (A) (A) (A) (A) (A) (A) (A) (A) (A) (A)
                 (A) (A) (A) (A) (A) (A) (A) (A) (A) (A) (A) (A)
                 (A) (A) (A) (A) (A) (A) (A) (A) (A) (A) (A) (A)
                 (A) (A) (A) (A) (A) (A) (A) (A) (A) (A) (A) (A)
                 (A) (A) (A) (A) (A) (A) (A) (A) (A) (A) (A) (A)
                 (A) (A) (A) (A) (A) (A) (A) (A) (A) (A) (A) (A)
                 (A) (A) (A) (A) (A) (A) (A) (A) (A) (A) (A) (A)
                 (A) (A) (A) (A) (A) (A) (A) (A) (A) (A) (A) (A)
                 (A) (A) (A) (A) (A) (A) (A) (A) (A) (A) (A) (A)
                 (A) (A) (A) (A) (A) (A) (A) (A) (A) (A) (A) (A)
                 (A) (A) (A) (A) (A) (A) (A) (A) (A) (A) (A) (A)
                 (A) (A) (A) (A) (A) (A) (A) (A) (A) (A) (A) (A)
                 (A) (A) (A) (A) (A) (A) (A) (A) (A) (A) (A) (A)
                 (A) (A) (A) (A) (A) (A) (A) (A) (A) (A) (A) (A)
                 (A) (A) (A) (A) (A) (A) (A) (A) (A) (A) (A) (A)
                 (A) (A) (A) (A) (A) (A) (A) (A) (A) (A) (A) (A)
                 (A) (A) (A) (A) (A) (A) (A) (A) (A) (A) (A) (A)
                 (A) (A) (A) (A) (A) (A) (A) (A) (A) (A) (A) (A)
                 (A) (A) (A) (A) (A) (A) (A) (A) (A) (A) (A) (A)
                 (A) (A) (A) (A) (A) (A) (A) (A) (A) (A) (A) (A)
                 (A) (A) (A) (A) (A) (A) (A) (A) (A) (A) (A) (A)
                 (A) (A) (A) (A) (A) (A) (A) (A) (A) (A) (A) (A)
                 (A) (A) (A) (A) (A) (A) (A) (A) (A) (A) (A) (A)
                 (A) (A) (A) (A) (A) (A) (A) (A) (A) (A) (A) (A)
                 (A) (A) (A) (A) (A) (A) (A) (A) (A) (A) (A) (A)
                 (A) (A) (A) (A) (A) (A) (A) (A) (A) (A) (A) (A)
                 (A) (A) (A) (A) (A) (A) (A) (A) (A) (A) (A) (A)
                 (A) (A) (A) (A) (A) (A) (A) (A) (A) (A) (A) (A)
                 (A) (A) (A) (A) (A) (A) (A) (A) (A) (A) (A) (A)
                 (A) (A) (A) (A) (A) (A) (A) (A) (A) (A) (A) (A)
                 (A) (A) (A) (A) (A) (A) (A) (A) (A) (A) (A) (A)
                 (A) (A) (A) (A) (A) (A) (A) (A) (A) (A) (A) (A)
                 (A) (A) (A) (A) (A) (A) (A) (A) (A) (A) (A) (A)
                 (A) (A) (A) (A) (A) (A) (A) (A) (A) (A) (A) (A)
                 (A) (A) (A) (A) (A) (A) (A) (A) (A) (A) (A) (A)
                 (A) (A) (A) (A) (A) (A) (A) (A) (A) (A) (A) (A)
                 (A) (A) (A) (A) (A) (A) (A) (A) (A) (A) (A) (A)
                 (A) (A) (A) (A) (A) (A) (A) (A) (A) (A) (A) (A)
                 (A) (A) (A) (A) (A) (A) (A) (A) (A) (A) (A) (A)
                 (A) (A) (A) (A) (A) (A) (A) (A) (A) (A) (A) (A)
                 (A) (A) (A) (A) (A) (A) (A) (A) (A) (A) (A) (A)
                 (A) (A) (A) (A) (A) (A) (A) (A) (A) (A) (A) (A)
                 (A) (A) (A) (A) (A) (A) (A) (A) (A) (A) (A) (A)
                 (A) (A) (A) (A) (A) (A) (A) (A) (A) (A) (A) (A)
                 (A) (A) (A) (A) (A) (A) (A) (A) (A) (A) (A) (A)
                 (A) (A) (A) (A) (A) (A) (A) (A) (A) (A) (A) (A)
                 (A) (A) (A) (A) (A) (A) (A) (A) (A) (A) (A) (A)
                 (A) (A) (A) (A) (A) (A) (A) (A) (A) (A) (A) (A)
                 (A) (A) (A) (A) (A) (A) (A) (A) (A) (A) (A) (A)
                 (A) (A) (A) (A) (A) (A) (A) (A) (A) (A) (A) (A)
                 (A) (A) (A) (A) (A) (A) (A) (A) (A) (A) (A) (A)
                 (A) (A) (A) (A) (A) (A) (A) (A) (A) (A) (A) (A)
                 (A) (A) (A) (A) (A) (A) (A) (A) (A) (A) (A) (A)
                 (A) (A) (A) (A) (A) (A) (A) (A) (A) (A) (A) (A)
                 (A) (A) (A)
   600 initial guesses have been made.
 Convergence on wavefunction:    0.001000000000000
 Iteration     1 Dimension   600 NMult     0 NNew    600
 CISAX will form   144 AO SS matrices at one time.
 New state      6 was old state     10
 New state      7 was old state     12
 New state      8 was old state      6
 New state      9 was old state      7
 New state     10 was old state      8
 New state     11 was old state      9
 New state     12 was old state     11
 New state     15 was old state     16
 New state     16 was old state     50
 New state     17 was old state     15
 New state     18 was old state     59
 New state     19 was old state     17
 New state     20 was old state     22
 New state     22 was old state     20
 New state     24 was old state     40
 New state     25 was old state     27
 New state     26 was old state     30
 New state     27 was old state     31
 New state     29 was old state     33
 New state     30 was old state     18
 New state     31 was old state     19
 New state     32 was old state     25
 New state     33 was old state     34
 New state     34 was old state     35
 New state     35 was old state     63
 New state     36 was old state     37
 New state     37 was old state     39
 New state     38 was old state     24
 New state     39 was old state     46
 New state     40 was old state     52
 New state     41 was old state     71
 New state     42 was old state     38
 New state     43 was old state     26
 New state     44 was old state     95
 New state     45 was old state     48
 New state     46 was old state     53
 New state     47 was old state     42
 New state     48 was old state     29
 New state     49 was old state     47
 New state     50 was old state     57
 New state     51 was old state     58
 New state     52 was old state     51
 New state     53 was old state     55
 New state     54 was old state     66
 New state     55 was old state     43
 New state     56 was old state     62
 New state     57 was old state     44
 New state     58 was old state     67
 New state     59 was old state     78
 New state     60 was old state     81
 New state     61 was old state     54
 New state     62 was old state     69
 New state     63 was old state     70
 New state     66 was old state    159
 New state     67 was old state    171
 New state     68 was old state     32
 New state     69 was old state    183
 New state     70 was old state     36
 New state     71 was old state     72
 New state     72 was old state     61
 New state     74 was old state    182
 New state     75 was old state    193
 New state     76 was old state     79
 New state     77 was old state     76
 New state     78 was old state     41
 New state     79 was old state     92
 New state     80 was old state    109
 New state     81 was old state     80
 New state     82 was old state     56
 New state     83 was old state    113
 New state     84 was old state     83
 New state     85 was old state    111
 New state     86 was old state     96
 New state     87 was old state    139
 New state     88 was old state     98
 New state     89 was old state     84
 New state     90 was old state     88
 New state     91 was old state     85
 New state     92 was old state    230
 New state     93 was old state     49
 New state     94 was old state    137
 New state     95 was old state    245
 New state     96 was old state     75
 New state     97 was old state     77
 New state     98 was old state     68
 New state     99 was old state    117
 New state    100 was old state     74
 New state    101 was old state     99
 New state    102 was old state    152
 New state    103 was old state     87
 New state    104 was old state     60
 New state    105 was old state    127
 New state    106 was old state    256
 New state    107 was old state    115
 New state    108 was old state     86
 New state    109 was old state     90
 New state    110 was old state     91
 New state    111 was old state    128
 New state    112 was old state     97
 New state    113 was old state     94
 New state    114 was old state    101
 New state    115 was old state    112
 New state    116 was old state    105
 New state    117 was old state    100
 New state    118 was old state    162
 New state    119 was old state    147
 New state    120 was old state    103
 New state    121 was old state    110
 New state    122 was old state    129
 New state    123 was old state    106
 New state    124 was old state    107
 New state    125 was old state    145
 New state    126 was old state    170
 New state    127 was old state    102
 New state    128 was old state    143
 New state    129 was old state    161
 New state    130 was old state    190
 New state    131 was old state    118
 New state    132 was old state     89
 New state    133 was old state    175
 New state    134 was old state    122
 New state    135 was old state    124
 New state    136 was old state    228
 New state    137 was old state    173
 New state    138 was old state    204
 New state    139 was old state    121
 New state    140 was old state    306
 New state    141 was old state    130
 New state    142 was old state    308
 New state    143 was old state    123
 New state    144 was old state    156
 New state    145 was old state    158
 New state    146 was old state    134
 New state    147 was old state    154
 New state    148 was old state    146
 New state    149 was old state    135
 New state    150 was old state    163
 Iteration     2 Dimension   900 NMult   600 NNew    300
 New state     15 was old state     19
 New state     16 was old state     15
 New state     18 was old state     16
 New state     19 was old state     18
 New state     20 was old state     21
 New state     21 was old state     22
 New state     22 was old state     20
 New state     23 was old state     25
 New state     24 was old state     23
 New state     25 was old state     24
 New state     27 was old state     31
 New state     28 was old state     35
 New state     29 was old state     32
 New state     30 was old state     27
 New state     31 was old state     34
 New state     32 was old state     36
 New state     33 was old state     29
 New state     34 was old state     28
 New state     35 was old state     33
 New state     36 was old state     30
 New state     37 was old state     38
 New state     38 was old state     40
 New state     39 was old state     37
 New state     40 was old state     48
 New state     41 was old state     39
 New state     42 was old state     49
 New state     43 was old state     41
 New state     44 was old state     43
 New state     45 was old state     42
 New state     46 was old state     44
 New state     47 was old state     45
 New state     48 was old state     46
 New state     49 was old state     47
 No map to state     50
 New state     51 was old state     50
 New state     52 was old state     55
 New state     53 was old state     51
 New state     54 was old state     57
 New state     55 was old state     52
 New state     56 was old state     54
 New state     57 was old state     56
 New state     58 was old state     65
 New state     59 was old state     61
 New state     60 was old state     58
 New state     61 was old state     59
 New state     62 was old state     60
 New state     63 was old state     62
 New state     64 was old state     67
 New state     65 was old state     66
 New state     66 was old state     63
 New state     67 was old state     69
 New state     68 was old state     64
 New state     69 was old state     71
 New state     70 was old state     74
 New state     71 was old state     76
 New state     72 was old state     75
 New state     74 was old state     68
 New state     75 was old state     72
 New state     76 was old state     77
 New state     77 was old state     70
 New state     78 was old state     80
 New state     79 was old state     82
 New state     80 was old state     78
 New state     81 was old state     79
 New state     82 was old state     84
 New state     84 was old state     81
 New state     85 was old state    100
 New state     86 was old state    112
 New state     87 was old state     90
 New state     88 was old state     86
 New state     89 was old state     85
 New state     90 was old state     87
 New state     91 was old state     92
 New state     92 was old state     94
 New state     93 was old state     88
 New state     94 was old state     89
 New state     95 was old state    108
 New state     96 was old state     91
 New state     97 was old state     95
 New state     98 was old state     96
 New state     99 was old state     97
 New state    100 was old state    106
 New state    101 was old state    102
 New state    102 was old state     93
 New state    103 was old state     99
 New state    104 was old state    105
 New state    105 was old state    107
 New state    106 was old state    101
 New state    107 was old state    103
 New state    108 was old state    110
 New state    110 was old state    111
 New state    111 was old state    116
 New state    112 was old state    104
 New state    114 was old state    119
 New state    116 was old state    114
 New state    118 was old state    125
 New state    119 was old state    118
 New state    121 was old state    126
 New state    122 was old state    127
 New state    125 was old state    122
 New state    126 was old state    121
 New state    127 was old state    129
 New state    129 was old state    131
 New state    131 was old state    133
 New state    133 was old state    135
 New state    134 was old state    136
 New state    135 was old state    134
 New state    136 was old state    140
 New state    137 was old state    142
 New state    140 was old state    141
 New state    141 was old state    137
 New state    142 was old state    145
 New state    145 was old state    152
 New state    146 was old state    147
 New state    147 was old state    146
 New state    148 was old state    154
 New state    149 was old state    153
 New state    150 was old state    165
 Iteration     3 Dimension  1200 NMult   900 NNew    300
 New state     77 was old state     78
 New state     78 was old state     79
 New state     79 was old state     77
 New state    106 was old state    107
 New state    107 was old state    106
 New state    143 was old state    146
 New state    144 was old state    145
 New state    145 was old state    143
 New state    146 was old state    144
 Iteration     4 Dimension  1500 NMult  1200 NNew    300
 Iteration     5 Dimension  1672 NMult  1500 NNew    172
 Iteration     6 Dimension  1688 NMult  1672 NNew     16
 ***********************************************************************
 Excited states from <AA,BB:AA,BB> singles matrix:
 ***********************************************************************
 
 Ground to excited state transition densities written to RWF  633
 Ground to excited state transition electric dipole moments (Au):
       state          X           Y           Z        Dip. S.      Osc.
         1         7.5666     -0.1661      0.0466     57.2831      2.7913
         2        -0.2470     -0.7890     -0.0031      0.6835      0.0620
         3         0.0657     -0.7711      0.0007      0.5989      0.0592
         4        -0.1527     -0.3220     -0.0064      0.1271      0.0136
         5        -0.1747      0.3045      0.0808      0.1298      0.0140
         6         0.0764      0.1523      0.0639      0.0331      0.0037
         7         0.1939      0.0721      0.0181      0.0431      0.0048
         8         0.9214      0.2820      0.0072      0.9286      0.1053
         9         0.1929      0.7055      0.1471      0.5566      0.0637
        10        -0.1066      0.2579      0.0675      0.0824      0.0096
        11         0.1661     -0.4763     -0.0608      0.2581      0.0313
        12        -0.2769     -0.1130      0.0384      0.0909      0.0114
        13        -0.0661      0.0352      0.0032      0.0056      0.0007
        14        -0.5880      0.0832     -0.0104      0.3528      0.0480
        15        -0.7645      0.1737      0.0254      0.6153      0.0862
        16         0.2564      0.5699     -0.0361      0.3918      0.0557
        17         0.6484     -0.1821     -0.0313      0.4545      0.0652
        18        -0.1065      0.0730      0.0457      0.0188      0.0027
        19         0.1187     -0.0597      0.0069      0.0177      0.0026
        20         0.5265     -0.7555     -0.0269      0.8486      0.1262
        21        -0.8947      0.2353      0.1042      0.8667      0.1293
        22         0.4508     -0.1209      0.0926      0.2264      0.0342
        23        -0.1439      0.2932      0.0717      0.1118      0.0170
        24        -0.3798     -0.1871      0.0600      0.1829      0.0279
        25        -0.2369      0.1154      0.0072      0.0695      0.0106
        26        -0.0113      0.0542     -0.0404      0.0047      0.0007
        27        -0.0918     -0.2397      0.0251      0.0665      0.0102
        28         0.1166      0.5061      0.0401      0.2714      0.0422
        29         0.3870      0.2791      0.0201      0.2281      0.0355
        30        -0.5811     -0.5937     -0.0945      0.6990      0.1097
        31        -1.4356      0.1679      0.0114      2.0892      0.3286
        32        -0.8746     -0.9750     -0.1525      1.7388      0.2747
        33        -0.2958     -0.2973     -0.1133      0.1887      0.0299
        34         0.2243      0.2236      0.0336      0.1014      0.0161
        35        -0.2187     -0.2052     -0.1185      0.1040      0.0166
        36        -0.1614      0.1138      0.1411      0.0589      0.0095
        37        -0.5104     -0.2011      0.1283      0.3175      0.0513
        38        -0.1242     -0.7908     -0.1201      0.6552      0.1081
        39         0.0309     -0.4259     -0.0518      0.1850      0.0307
        40         0.0766      0.3076     -0.0484      0.1028      0.0172
        41         1.0149     -0.5690     -0.0469      1.3559      0.2267
        42         0.5419     -0.3369      0.0020      0.4071      0.0682
        43         0.1004     -0.4023      0.0346      0.1731      0.0293
        44        -0.0242     -0.2266     -0.0113      0.0521      0.0088
        45         0.2356      0.0904     -0.0492      0.0661      0.0113
        46        -0.0426      0.0657      0.0238      0.0067      0.0011
        47        -0.0139     -0.0607     -0.0284      0.0047      0.0008
        48        -0.0385     -0.1686      0.0511      0.0325      0.0057
        49        -0.0653      0.0106     -0.0394      0.0059      0.0010
        50         0.1003     -0.0415     -0.0236      0.0123      0.0022
        51         0.3996      0.4682      0.0803      0.3854      0.0687
        52        -0.5462     -0.3789     -0.0657      0.4462      0.0800
        53         0.4533     -0.0998     -0.0280      0.2163      0.0388
        54        -0.3713      0.0781     -0.0111      0.1441      0.0259
        55         0.0554     -0.0248     -0.0251      0.0043      0.0008
        56        -0.3078      0.2143      0.0587      0.1441      0.0262
        57         0.1137     -0.1429      0.0641      0.0374      0.0068
        58         0.1287     -0.0624     -0.1255      0.0362      0.0066
        59        -0.0673     -0.1446     -0.0326      0.0265      0.0049
        60         0.0120     -0.1285      0.0879      0.0244      0.0045
        61        -0.0042     -0.0567      0.1277      0.0195      0.0036
        62         0.0869     -0.0924     -0.0675      0.0206      0.0039
        63         0.0282     -0.0550      0.0189      0.0042      0.0008
        64        -0.0008     -0.1335     -0.1702      0.0468      0.0088
        65         0.0354      0.1005      0.0381      0.0128      0.0024
        66        -0.0043      0.0325     -0.0006      0.0011      0.0002
        67         0.0192      0.0167      0.0489      0.0030      0.0006
        68         0.0576      0.0448     -0.0431      0.0072      0.0014
        69        -0.0306     -0.0414      0.1128      0.0154      0.0029
        70         0.0424     -0.0272      0.2166      0.0495      0.0094
        71        -0.0409     -0.0051     -0.0749      0.0073      0.0014
        72        -0.1314      0.1691     -0.0924      0.0544      0.0104
        73         0.0945     -0.0330      0.1096      0.0220      0.0042
        74        -0.1282      0.2687      0.0197      0.0890      0.0172
        75        -0.0298     -0.1527      0.0039      0.0242      0.0047
        76         0.1307      0.1308     -0.0060      0.0342      0.0066
        77        -0.0793      0.3337     -0.0186      0.1180      0.0228
        78        -0.7428      0.7777      0.1511      1.1794      0.2283
        79        -0.4116      0.2936      0.0745      0.2611      0.0506
        80         0.1792      0.5993     -0.0552      0.3943      0.0767
        81        -0.0017     -0.0486     -0.0626      0.0063      0.0012
        82         0.1419     -0.0943      0.0564      0.0322      0.0063
        83        -0.1374      0.0917     -0.0861      0.0347      0.0068
        84        -0.2380     -0.2557     -0.0441      0.1240      0.0244
        85         0.0339      0.2597     -0.0813      0.0752      0.0148
        86         0.1366     -0.3597     -0.0213      0.1485      0.0293
        87        -0.2361     -0.0339      0.0478      0.0592      0.0117
        88         0.0503     -0.1302     -0.2365      0.0754      0.0150
        89         0.0488     -0.1741      0.1394      0.0521      0.0104
        90         0.1901      0.0910      0.1872      0.0795      0.0158
        91        -0.1320      0.0667     -0.0775      0.0279      0.0056
        92         0.1646      0.0350      0.0461      0.0304      0.0061
        93        -0.0764     -0.2067      0.1568      0.0732      0.0147
        94         0.3156      0.1222     -0.0829      0.1214      0.0243
        95        -0.0615     -0.0780     -0.0822      0.0166      0.0033
        96        -0.1018      0.4756      0.1469      0.2581      0.0520
        97         0.1796     -0.1673     -0.0143      0.0605      0.0122
        98         0.0387     -0.1346     -0.0695      0.0244      0.0049
        99         0.1068     -0.2302     -0.0604      0.0681      0.0138
       100         0.0584     -0.0281      0.0421      0.0060      0.0012
       101         0.0637     -0.0006     -0.0635      0.0081      0.0017
       102        -0.0230     -0.0329      0.0208      0.0020      0.0004
       103         0.0177      0.0919      0.0109      0.0089      0.0018
       104        -0.0990     -0.0372     -0.0046      0.0112      0.0023
       105         0.0047      0.2231      0.0768      0.0557      0.0114
       106        -0.1502     -0.1910     -0.0325      0.0601      0.0123
       107        -0.1071     -0.1406      0.0717      0.0364      0.0075
       108        -0.1993      0.0571     -0.0367      0.0443      0.0091
       109         0.0043     -0.0996      0.0313      0.0109      0.0022
       110         0.0688      0.1857     -0.0420      0.0410      0.0085
       111         0.0295      0.1172     -0.0371      0.0160      0.0033
       112         0.0045     -0.0057     -0.0034      0.0001      0.0000
       113        -0.0358     -0.1189      0.0386      0.0169      0.0035
       114        -0.1594     -0.2327      0.1151      0.0928      0.0193
       115         0.3971      0.2876     -0.0311      0.2414      0.0503
       116        -0.0671     -0.1871     -0.0386      0.0410      0.0086
       117        -0.2611      0.0525      0.0581      0.0743      0.0155
       118         0.2274     -0.5587     -0.1413      0.3839      0.0804
       119        -0.1212      0.0749      0.0683      0.0250      0.0052
       120        -0.0552     -0.4732      0.0246      0.2275      0.0479
       121         0.0506     -0.2604     -0.1289      0.0870      0.0183
       122         0.2565     -0.1459     -0.0294      0.0879      0.0186
       123         0.0079      0.1304      0.0951      0.0261      0.0055
       124        -0.3960     -0.0021     -0.0353      0.1581      0.0335
       125         0.1200      0.2349     -0.0019      0.0696      0.0148
       126        -0.0030      0.0762      0.0015      0.0058      0.0012
       127         0.0555      0.0972      0.0661      0.0169      0.0036
       128         0.0720      0.1425     -0.0500      0.0280      0.0060
       129         0.0401      0.0242     -0.0435      0.0041      0.0009
       130        -0.1031      0.0005      0.0102      0.0107      0.0023
       131         0.0131      0.0417     -0.0080      0.0020      0.0004
       132        -0.0654      0.1685      0.0113      0.0328      0.0070
       133        -0.0241     -0.0967      0.0047      0.0100      0.0021
       134        -0.0240     -0.1007     -0.0207      0.0112      0.0024
       135        -0.0088      0.2689     -0.0505      0.0749      0.0162
       136        -0.1766      0.0278     -0.0592      0.0355      0.0077
       137         0.1580     -0.1154     -0.1263      0.0542      0.0118
       138        -0.2286     -0.0124     -0.0029      0.0524      0.0114
       139         0.0949      0.0460     -0.0668      0.0156      0.0034
       140        -0.1134      0.0605      0.0364      0.0178      0.0039
       141        -0.0543      0.0500      0.0348      0.0067      0.0015
       142         0.5275     -0.2420     -0.0164      0.3371      0.0739
       143         0.4184      0.3053     -0.0574      0.2716      0.0596
       144        -0.4121      0.7027      0.0063      0.6636      0.1459
       145        -0.2167      0.1590     -0.0464      0.0744      0.0164
       146        -0.1720      0.0721      0.0271      0.0355      0.0078
       147        -0.3386      0.3354     -0.1203      0.2416      0.0535
       148        -0.1934      0.2111      0.0331      0.0831      0.0184
       149         0.0957     -0.0718     -0.0136      0.0145      0.0032
       150         0.1163      0.0090     -0.0526      0.0164      0.0037
 Ground to excited state transition velocity dipole moments (Au):
       state          X           Y           Z        Dip. S.      Osc.
         1        -0.5728      0.0131     -0.0035      0.3283      2.9945
         2         0.0344      0.1112      0.0003      0.0135      0.0664
         3        -0.0102      0.1194     -0.0002      0.0144      0.0646
         4         0.0253      0.0539      0.0011      0.0035      0.0147
         5         0.0290     -0.0509     -0.0133      0.0036      0.0148
         6        -0.0133     -0.0266     -0.0119      0.0010      0.0041
         7        -0.0338     -0.0131     -0.0040      0.0013      0.0053
         8        -0.1616     -0.0524     -0.0010      0.0289      0.1132
         9        -0.0335     -0.1272     -0.0264      0.0180      0.0699
        10         0.0184     -0.0483     -0.0125      0.0028      0.0108
        11        -0.0333      0.0923      0.0117      0.0098      0.0358
        12         0.0537      0.0225     -0.0076      0.0035      0.0122
        13         0.0143     -0.0064     -0.0007      0.0002      0.0008
        14         0.1241     -0.0178      0.0022      0.0157      0.0514
        15         0.1661     -0.0387     -0.0051      0.0291      0.0924
        16        -0.0569     -0.1262      0.0080      0.0192      0.0601
        17        -0.1451      0.0426      0.0072      0.0229      0.0710
        18         0.0236     -0.0165     -0.0118      0.0010      0.0030
        19        -0.0272      0.0138      0.0001      0.0009      0.0028
        20        -0.1223      0.1763      0.0064      0.0461      0.1377
        21         0.2099     -0.0558     -0.0246      0.0478      0.1424
        22        -0.1049      0.0297     -0.0222      0.0124      0.0364
        23         0.0313     -0.0687     -0.0162      0.0060      0.0175
        24         0.0880      0.0436     -0.0150      0.0099      0.0288
        25         0.0565     -0.0266     -0.0018      0.0039      0.0113
        26         0.0009     -0.0127      0.0105      0.0003      0.0008
        27         0.0224      0.0566     -0.0053      0.0037      0.0108
        28        -0.0293     -0.1208     -0.0098      0.0156      0.0445
        29        -0.0926     -0.0699     -0.0041      0.0135      0.0384
        30         0.1400      0.1437      0.0232      0.0408      0.1155
        31         0.3497     -0.0404     -0.0028      0.1239      0.3501
        32         0.2154      0.2404      0.0375      0.1056      0.2970
        33         0.0734      0.0725      0.0303      0.0116      0.0325
        34        -0.0553     -0.0541     -0.0091      0.0061      0.0170
        35         0.0551      0.0510      0.0266      0.0063      0.0177
        36         0.0396     -0.0286     -0.0316      0.0034      0.0093
        37         0.1278      0.0511     -0.0329      0.0200      0.0551
        38         0.0296      0.2032      0.0311      0.0431      0.1162
        39        -0.0082      0.1104      0.0134      0.0124      0.0333
        40        -0.0190     -0.0788      0.0128      0.0067      0.0179
        41        -0.2646      0.1474      0.0129      0.0919      0.2443
        42        -0.1417      0.0880     -0.0013      0.0278      0.0738
        43        -0.0273      0.1070     -0.0110      0.0123      0.0323
        44         0.0064      0.0604      0.0053      0.0037      0.0097
        45        -0.0633     -0.0236      0.0121      0.0047      0.0123
        46         0.0113     -0.0172     -0.0073      0.0005      0.0012
        47         0.0043      0.0171      0.0088      0.0004      0.0010
        48         0.0102      0.0465     -0.0145      0.0025      0.0063
        49         0.0183     -0.0031      0.0103      0.0004      0.0011
        50        -0.0271      0.0105      0.0074      0.0009      0.0023
        51        -0.1117     -0.1295     -0.0220      0.0297      0.0741
        52         0.1520      0.1040      0.0182      0.0342      0.0848
        53        -0.1271      0.0294      0.0073      0.0171      0.0423
        54         0.1047     -0.0223      0.0026      0.0115      0.0284
        55        -0.0139      0.0083      0.0071      0.0003      0.0008
        56         0.0866     -0.0599     -0.0142      0.0113      0.0276
        57        -0.0326      0.0392     -0.0145      0.0028      0.0068
        58        -0.0352      0.0162      0.0359      0.0028      0.0068
        59         0.0182      0.0402      0.0089      0.0020      0.0049
        60        -0.0034      0.0364     -0.0248      0.0020      0.0047
        61         0.0004      0.0171     -0.0388      0.0018      0.0043
        62        -0.0257      0.0275      0.0167      0.0017      0.0040
        63        -0.0083      0.0160     -0.0040      0.0003      0.0008
        64        -0.0009      0.0396      0.0457      0.0037      0.0087
        65        -0.0105     -0.0296     -0.0105      0.0011      0.0026
        66         0.0021     -0.0080     -0.0007      0.0001      0.0002
        67        -0.0059     -0.0043     -0.0126      0.0002      0.0005
        68        -0.0145     -0.0133      0.0094      0.0005      0.0011
        69         0.0067      0.0131     -0.0314      0.0012      0.0028
        70        -0.0150      0.0078     -0.0599      0.0039      0.0090
        71         0.0113      0.0020      0.0223      0.0006      0.0015
        72         0.0393     -0.0499      0.0274      0.0048      0.0111
        73        -0.0280      0.0101     -0.0323      0.0019      0.0045
        74         0.0383     -0.0791     -0.0052      0.0078      0.0179
        75         0.0095      0.0444     -0.0022      0.0021      0.0048
        76        -0.0385     -0.0378      0.0032      0.0029      0.0067
        77         0.0246     -0.1005      0.0067      0.0108      0.0247
        78         0.2243     -0.2307     -0.0446      0.1055      0.2423
        79         0.1243     -0.0865     -0.0226      0.0234      0.0538
        80        -0.0531     -0.1808      0.0149      0.0357      0.0817
        81         0.0025      0.0165      0.0150      0.0005      0.0011
        82        -0.0455      0.0269     -0.0147      0.0030      0.0068
        83         0.0428     -0.0268      0.0268      0.0033      0.0074
        84         0.0732      0.0788      0.0104      0.0117      0.0264
        85        -0.0108     -0.0785      0.0262      0.0070      0.0157
        86        -0.0422      0.1090      0.0083      0.0137      0.0309
        87         0.0718      0.0104     -0.0148      0.0055      0.0123
        88        -0.0188      0.0400      0.0669      0.0064      0.0144
        89        -0.0142      0.0539     -0.0370      0.0045      0.0100
        90        -0.0604     -0.0281     -0.0525      0.0072      0.0161
        91         0.0415     -0.0203      0.0211      0.0026      0.0058
        92        -0.0527     -0.0095     -0.0136      0.0030      0.0068
        93         0.0251      0.0642     -0.0438      0.0067      0.0148
        94        -0.1012     -0.0365      0.0237      0.0121      0.0269
        95         0.0221      0.0231      0.0267      0.0017      0.0038
        96         0.0308     -0.1486     -0.0437      0.0249      0.0550
        97        -0.0571      0.0519      0.0043      0.0060      0.0131
        98        -0.0115      0.0425      0.0223      0.0024      0.0054
        99        -0.0331      0.0724      0.0197      0.0067      0.0147
       100        -0.0191      0.0081     -0.0126      0.0006      0.0013
       101        -0.0205      0.0016      0.0168      0.0007      0.0015
       102         0.0075      0.0102     -0.0063      0.0002      0.0004
       103        -0.0059     -0.0280     -0.0059      0.0009      0.0019
       104         0.0323      0.0117      0.0006      0.0012      0.0026
       105        -0.0030     -0.0714     -0.0252      0.0057      0.0124
       106         0.0484      0.0596      0.0102      0.0060      0.0130
       107         0.0335      0.0437     -0.0242      0.0036      0.0078
       108         0.0649     -0.0190      0.0134      0.0048      0.0103
       109        -0.0005      0.0312     -0.0074      0.0010      0.0022
       110        -0.0225     -0.0583      0.0114      0.0040      0.0087
       111        -0.0099     -0.0371      0.0130      0.0016      0.0035
       112        -0.0017      0.0017      0.0012      0.0000      0.0000
       113         0.0130      0.0376     -0.0130      0.0018      0.0037
       114         0.0517      0.0752     -0.0339      0.0095      0.0202
       115        -0.1309     -0.0894      0.0125      0.0253      0.0539
       116         0.0210      0.0599      0.0127      0.0042      0.0089
       117         0.0862     -0.0172     -0.0199      0.0081      0.0173
       118        -0.0723      0.1786      0.0444      0.0391      0.0830
       119         0.0394     -0.0229     -0.0206      0.0025      0.0053
       120         0.0221      0.1524     -0.0082      0.0238      0.0502
       121        -0.0151      0.0847      0.0409      0.0091      0.0192
       122        -0.0860      0.0469      0.0095      0.0097      0.0204
       123        -0.0006     -0.0449     -0.0312      0.0030      0.0063
       124         0.1291     -0.0003      0.0101      0.0168      0.0352
       125        -0.0387     -0.0755     -0.0029      0.0072      0.0151
       126         0.0010     -0.0240      0.0002      0.0006      0.0012
       127        -0.0170     -0.0329     -0.0224      0.0019      0.0039
       128        -0.0258     -0.0479      0.0177      0.0033      0.0068
       129        -0.0120     -0.0077      0.0137      0.0004      0.0008
       130         0.0360     -0.0006     -0.0015      0.0013      0.0027
       131        -0.0019     -0.0149     -0.0003      0.0002      0.0005
       132         0.0213     -0.0581     -0.0025      0.0038      0.0079
       133         0.0081      0.0328     -0.0038      0.0012      0.0024
       134         0.0080      0.0337      0.0049      0.0012      0.0025
       135         0.0038     -0.0896      0.0179      0.0084      0.0172
       136         0.0605     -0.0098      0.0190      0.0041      0.0085
       137        -0.0537      0.0384      0.0383      0.0058      0.0119
       138         0.0771      0.0054      0.0013      0.0060      0.0122
       139        -0.0336     -0.0159      0.0223      0.0019      0.0038
       140         0.0398     -0.0220     -0.0099      0.0022      0.0044
       141         0.0174     -0.0173     -0.0079      0.0007      0.0013
       142        -0.1855      0.0817      0.0044      0.0411      0.0834
       143        -0.1428     -0.1066      0.0216      0.0322      0.0652
       144         0.1471     -0.2424     -0.0017      0.0804      0.1625
       145         0.0758     -0.0545      0.0143      0.0089      0.0180
       146         0.0591     -0.0228     -0.0095      0.0041      0.0083
       147         0.1166     -0.1152      0.0369      0.0282      0.0567
       148         0.0681     -0.0720     -0.0110      0.0099      0.0199
       149        -0.0341      0.0238      0.0021      0.0017      0.0035
       150        -0.0417     -0.0013      0.0199      0.0021      0.0043
 Ground to excited state transition magnetic dipole moments (Au):
       state          X           Y           Z
         1         0.0435      0.0894     -1.6174
         2        -0.0460      0.0954     -0.3108
         3        -0.0176      0.0792     -0.3631
         4         0.0344     -0.0677     -0.0965
         5         0.0989      0.0595     -0.1581
         6         0.0140     -0.1721     -0.3398
         7         0.2164      0.1472      0.3009
         8        -0.0761     -0.0545      1.4870
         9        -0.0290      0.5223     -2.4568
        10        -0.0515      0.1718      0.2139
        11         0.0455     -0.2996     -0.1029
        12         0.0614      0.2191     -2.3782
        13        -0.0173      0.0004     -0.0325
        14        -0.0026      0.0619      0.2470
        15        -0.0423     -0.0116      1.7792
        16        -0.0432     -0.2644      1.2612
        17        -0.0058     -0.0180     -0.2747
        18         0.0307      0.5368      0.2600
        19         0.3471      0.3757     -0.0891
        20         0.0232      0.1774     -2.9236
        21        -0.0689      0.3630     -0.4651
        22         0.0164     -0.1729     -0.6817
        23         0.0999     -0.0604      0.2373
        24        -0.0439     -0.0320      0.0288
        25         0.1025      0.0306     -0.5924
        26        -0.0937      0.1256      0.4383
        27         0.0497     -0.2389     -0.0878
        28         0.1062     -0.0094      0.4318
        29        -0.0832      0.6139     -0.3998
        30         0.1308     -0.5112      3.2251
        31        -0.0171      0.3235     -2.5282
        32         0.0581     -0.6775      3.3659
        33         0.0265     -0.1087      0.6654
        34         0.2420     -0.2561     -0.1552
        35        -0.2498      0.0363      0.1366
        36        -0.0168      0.0675     -0.9642
        37         0.1066      0.6017     -3.9119
        38         0.0526     -0.3693     -0.8192
        39         0.2413     -0.1969      1.2056
        40         0.0381      0.1819     -0.7128
        41        -0.1712     -0.3108     -1.4447
        42         0.3274      0.0621     -0.6352
        43         0.3703      0.1459     -1.9549
        44        -0.3686      0.0094     -1.4749
        45        -0.0845     -0.2049      0.3387
        46         0.1965      0.0661     -0.1086
        47         0.3123     -0.1526     -0.2855
        48        -0.0909      0.1100     -0.3631
        49         0.1346      0.0401     -0.4382
        50         0.0525     -0.1171     -0.1255
        51        -0.0698      0.5060     -2.1429
        52         0.0131     -0.0398      0.8689
        53        -0.0130     -0.0511      0.9309
        54        -0.0667     -0.1349     -0.9819
        55         0.5808      0.1812     -0.3300
        56        -0.1966      0.2630     -1.3179
        57        -0.1190     -0.4416      1.0221
        58        -0.0663      0.1889      0.4313
        59        -0.0705      0.0093      1.3101
        60        -0.0407      0.4388      0.6728
        61        -0.1795     -0.3061      0.2855
        62        -0.5534     -0.7099     -0.1583
        63        -0.5171     -0.1601      0.3402
        64         0.2600      0.3080     -0.1235
        65         0.0926      0.3292      0.0291
        66        -0.1966     -0.1216     -0.3088
        67         0.1577     -0.2115     -0.0605
        68        -0.2459      0.0378     -0.0619
        69         0.3620     -0.1822     -0.6697
        70        -0.1430      0.3240     -0.4058
        71         0.0815     -0.3404     -0.9906
        72         0.1795     -0.5865      0.3723
        73         0.0754     -0.4950      0.1607
        74         0.2008     -0.1808      0.8001
        75        -0.2026      0.4365     -0.7129
        76        -0.0593     -0.4821      1.4967
        77         0.8598      0.1552      1.9747
        78        -0.0670      0.7071     -0.6486
        79        -0.1535      0.3352     -1.0021
        80        -0.7056      0.1195      3.3984
        81         0.1096     -0.1007      0.3297
        82        -0.3513      0.1758     -1.1555
        83        -0.5899     -0.4724      1.1185
        84        -0.0814     -0.0975     -1.0701
        85         0.1610     -0.6411      0.5472
        86        -0.0610     -0.2084     -0.7574
        87        -0.0287      0.2257     -0.7663
        88         0.0260      0.1241     -0.8650
        89        -0.0895      0.3480      0.5481
        90        -0.0161     -0.6998      0.0755
        91        -0.1042     -0.4276     -0.1516
        92        -0.0376      0.0174      0.5825
        93         0.2199     -0.2803     -0.4311
        94         0.0222      0.1669      1.1892
        95        -0.1342      0.1718      0.5987
        96         0.0112      0.7313     -2.1213
        97         0.1151     -0.1053      0.5299
        98        -0.0357     -0.1831     -0.0235
        99         0.0389     -0.0807      0.0116
       100         0.3028     -0.0183      0.2669
       101        -0.3174     -0.1606     -0.1170
       102         0.0859      0.0595     -0.0738
       103         0.0459      0.2438      0.0878
       104         0.0171     -0.6372      0.2465
       105        -0.0106      0.2029     -1.7126
       106         0.0416     -0.0880     -0.5342
       107        -0.0043      0.3988     -0.1147
       108         0.1131      0.3046     -0.8893
       109        -0.0886      0.8168     -0.0689
       110        -0.1027      0.1879      0.5882
       111         0.1334      0.0256      0.5128
       112         0.0496     -0.0292      0.0145
       113        -0.0125     -0.8184     -0.4505
       114        -0.1860     -0.3205     -0.1125
       115        -0.1286      0.4324      2.4312
       116         0.2347     -0.3654      0.7134
       117         0.1872      0.0743     -0.6720
       118         0.6762     -0.4484      0.8534
       119         0.2741     -0.2879      0.9452
       120        -0.3300      0.2033      2.8261
       121        -0.3729     -0.8083      2.1199
       122        -0.3796      0.5448     -0.8765
       123         0.3061      0.3985     -0.4982
       124         0.0456      0.4803     -0.7632
       125         0.2070      0.5093      1.1362
       126         0.0925     -0.4551     -0.2943
       127        -0.1121      0.0379     -0.4134
       128        -0.3379      0.2197     -0.0831
       129        -0.1147      0.0538      0.2147
       130        -0.6471     -0.5613      0.5259
       131         0.1375     -0.3515     -0.2392
       132        -0.5498     -0.2254     -0.6356
       133         0.1478     -0.0709     -0.3496
       134        -0.2251     -0.5146     -0.0364
       135        -0.1855      0.0397     -0.6021
       136         0.6421      0.7895      0.3814
       137         0.2314     -0.2228     -0.2990
       138         0.2536     -0.0026      0.0323
       139         0.2075      0.1213      0.3353
       140         0.3811      0.1001      0.0847
       141        -0.1404     -0.0447      0.1596
       142        -0.1178     -0.1365     -1.0214
       143        -0.1671      0.5177     -0.1014
       144        -0.1805     -0.3335      1.6589
       145         0.1962      0.4421      1.0057
       146         0.0327     -0.2450      0.3787
       147         0.3216      0.2554      0.8236
       148        -0.5795      0.3144     -0.1739
       149        -0.5037      0.4953     -0.3206
       150        -0.0399      0.7031      0.5241
 Ground to excited state transition velocity quadrupole moments (Au):
       state          XX          YY          ZZ          XY          XZ          YZ
         1        -0.2189      0.0457     -0.0012     -0.1472      0.0338     -0.0456
         2         9.0589      0.4682      0.0408     -0.4716      0.0147      0.0221
         3         4.9475      0.0573      0.0223     -0.2922      0.0056      0.0067
         4        -1.0728     -0.1174     -0.0018     -0.4958      0.0447      0.0035
         5         0.4331      0.0224      0.0030     -0.6600     -0.1382      0.0222
         6        -0.4830     -0.0239      0.0056     -0.1745     -0.1694      0.0020
         7         0.7977     -0.0229     -0.0048      0.0970      0.0931     -0.0407
         8         4.3714     -0.1090     -0.0039      0.5484      0.0574      0.0098
         9        -0.8301      0.0601     -0.0004     -2.2390     -0.3781      0.0050
        10         0.5462     -0.1327      0.0038      0.7763     -0.1166      0.0183
        11        -1.0376      0.1554      0.0000     -0.5009      0.1561      0.0037
        12        -0.9047     -0.0649     -0.0259     -1.4694     -0.1095     -0.0058
        13         2.6596      0.1636      0.0039     -0.1552     -0.0033      0.0044
        14         0.2454     -0.0446     -0.0022      0.1020     -0.0351     -0.0381
        15         0.2386     -0.2711      0.0123      1.9723     -0.0524      0.0580
        16        -6.5079      0.0266      0.0398      1.2152      0.1090      0.0093
        17        -2.7499      0.2221      0.0127     -0.7706      0.0646      0.0614
        18         0.2325     -0.0686     -0.0016      0.3228     -0.0711      0.0100
        19        -0.3619      0.1006      0.0013     -0.2513      0.0217      0.0033
        20         4.4294      0.6167     -0.0277     -3.1027     -0.1262     -0.0279
        21         5.0106     -0.4081     -0.0277      0.0933     -0.3318     -0.0545
        22         0.1766      0.5213     -0.0205     -1.0856      0.1276      0.0687
        23        -2.2863     -0.0017      0.0255      0.1057      0.0106      0.0905
        24        -0.4196     -0.4879     -0.0214      0.4285      0.0406     -0.0301
        25        -0.5708     -0.1111      0.0075     -0.4954     -0.0202      0.0298
        26         0.5279     -0.1016     -0.0028      0.4740     -0.1232     -0.0685
        27        -1.0560     -0.0824     -0.0018     -0.0390      0.1166      0.0862
        28         2.1111     -0.1784      0.0409      0.7720      0.0558      0.0402
        29         2.8350     -0.1666     -0.0498     -0.2284     -0.4502     -0.1347
        30         3.6098     -0.0063     -0.0394      3.2695      0.4442      0.0143
        31        -9.9001      0.5160      0.0042     -0.4218     -0.4378     -0.0488
        32         3.9266      0.2102      0.0116      3.6070      0.7147      0.0250
        33         1.1325      0.0072     -0.0131      0.6393      0.0222     -0.0159
        34        -3.1979      0.0652      0.0464     -0.2905      0.1638      0.1451
        35         0.0009      0.0548      0.0265      0.3584     -0.1145     -0.1106
        36         0.4111     -0.0410     -0.0272     -0.6219     -0.0340      0.0155
        37         6.8352     -0.0370     -0.0236     -3.4032     -0.5037     -0.0304
        38        -4.0211      1.0011      0.0003     -0.4391      0.2717      0.0368
        39         5.3995     -0.1106      0.0278      0.4210      0.2325      0.1001
        40        -4.8902     -0.0565      0.0352     -0.0964     -0.1741      0.0351
        41        -1.1124      0.3866     -0.0447     -2.2738      0.2858     -0.0067
        42        -1.2553      0.0848      0.0607     -1.0618     -0.0119      0.1478
        43         0.3132     -0.0147      0.0110     -2.1961     -0.0439      0.0497
        44         0.4182      0.0442     -0.0479     -1.5579     -0.1302     -0.0685
        45        -1.4400     -0.0444      0.0304      0.5461      0.2156     -0.0004
        46        -0.0475     -0.0180      0.0298      0.1381     -0.2033      0.0678
        47         1.2019     -0.1104     -0.0251     -0.2872     -0.0251      0.0597
        48         1.5471     -0.2300     -0.0419     -0.5428     -0.0473     -0.0442
        49         0.8635     -0.1357      0.0271     -0.3215      0.0987      0.0644
        50        -0.7897     -0.0696      0.0324      0.0213      0.1120      0.0220
        51        -3.9028     -0.1384      0.0160     -2.1786     -0.5085      0.0291
        52        -2.5452      0.4825     -0.0049      1.6800      0.0503      0.0662
        53         3.8346     -0.0952     -0.0224      0.3590      0.1224      0.0405
        54        -4.9851      0.3201      0.0088     -0.5204      0.0238     -0.0340
        55         0.8261      0.0280      0.0263     -0.1969     -0.2314      0.0555
        56         1.2305      0.1132     -0.0292     -1.3520     -0.2015     -0.1620
        57        -0.7035      0.0035     -0.0395      0.9711      0.4001     -0.0362
        58        -0.5944      0.0251     -0.0364      0.2845      0.0279     -0.0494
        59        -0.6295     -0.2373      0.0022      1.8495      0.1564     -0.0453
        60        -0.6040      0.1189      0.0914      0.4772     -0.1672      0.0326
        61        -0.2936      0.1192     -0.0012      0.1516      0.1512     -0.1315
        62        -0.2289      0.1618     -0.0517     -0.0783      0.7383     -0.1816
        63        -0.5263      0.3571      0.0136      0.2911      0.0818     -0.0848
        64        -0.6580      0.2525     -0.0010     -0.0851     -0.4106      0.2690
        65         0.2649     -0.2910     -0.0666     -0.2156     -0.1978     -0.0773
        66         0.2228     -0.3220      0.0521     -0.2306     -0.0345      0.0461
        67        -0.9958      0.1341      0.0193      0.1111      0.4871     -0.0503
        68         0.3809     -0.1301      0.0025     -0.1962      0.0025     -0.1400
        69         1.0760      0.1773      0.0679     -0.2580      0.2463      0.0991
        70         0.1756      0.0669     -0.0170     -0.2199     -0.3220      0.0479
        71         1.7129      0.2917      0.0209     -0.8190      0.3619      0.0527
        72         0.1203     -0.2413      0.0522      0.5265      0.6463      0.1185
        73        -0.1130     -0.0991      0.0164      0.1881      0.4055      0.1045
        74         0.0251     -0.1677      0.0288      0.8615      0.2598      0.1147
        75         1.3445      0.0194     -0.0424     -0.7520     -0.5187     -0.1559
        76        -1.4792     -0.1664      0.0291      1.6190      0.4478      0.0492
        77        -0.7487     -0.2088      0.0277      2.0220     -0.1067      0.0993
        78         5.6550     -0.5254      0.0066     -0.1003     -0.7072     -0.0341
        79         3.7169     -0.1721     -0.0030     -0.7972     -0.3257     -0.0248
        80        -3.0866     -0.5023     -0.0235      3.5383     -0.1325     -0.1825
        81         0.7655     -0.0448      0.0898      0.1912      0.1170      0.1606
        82        -1.0762      0.1499      0.0213     -1.1170     -0.2221     -0.1263
        83         0.5538      0.2474      0.0781      1.5281      0.3359     -0.0983
        84         2.6894      0.2807      0.0251     -1.4098      0.1620     -0.0370
        85        -0.2343     -0.2295      0.0359      0.5089      0.4624      0.0977
        86         2.0259      0.2035     -0.0229     -1.2866      0.1113      0.0008
        87         2.1135      0.1926     -0.0153     -1.1679     -0.3775     -0.0248
        88        -1.5954     -0.0042      0.0459     -0.4881     -0.0801      0.0123
        89        -0.2306      0.1764     -0.0531      0.3587     -0.3216     -0.0514
        90         1.4445      0.1421      0.0569     -0.1492      0.8568      0.1159
        91         0.9060     -0.1003     -0.0196     -0.3740      0.3012     -0.0080
        92         1.2903     -0.0302      0.0184      0.1850      0.1184     -0.0394
        93        -0.7264     -0.1565     -0.0034     -0.3443      0.0907      0.0718
        94         2.4103      0.1331      0.0205      0.6159     -0.3134      0.0024
        95         0.6986     -0.0219     -0.0046      0.5048     -0.2103     -0.1146
        96         0.6664     -0.2387     -0.0604     -1.8122     -0.6288     -0.0929
        97        -0.5725      0.1433     -0.0043      0.2560      0.1132      0.0983
        98        -0.3164     -0.0406      0.0080      0.0349      0.1775      0.0575
        99        -0.1393     -0.0312      0.0736      0.1415     -0.0199      0.0449
       100        -0.4727      0.0369      0.0257      0.3344     -0.0025      0.1319
       101        -0.5099      0.0223     -0.0541     -0.1685      0.1371     -0.2300
       102         0.0229     -0.0292     -0.0025     -0.0599     -0.0468      0.0440
       103        -0.0553      0.1296     -0.0419      0.0806     -0.2433     -0.0358
       104        -1.2231      0.2865      0.0228      0.5543      0.4273      0.0648
       105        -1.0987     -0.0904      0.0085     -1.7942     -0.2870     -0.0302
       106        -2.1610      0.5078      0.0231     -0.2383      0.0623      0.0551
       107        -0.5343      0.0031     -0.0835     -0.0794     -0.2565     -0.1720
       108        -1.1749      0.0134      0.0095     -0.7728     -0.3025      0.0207
       109        -1.9167      0.3758     -0.0103     -0.0702     -0.4579      0.0071
       110         1.3763     -0.0599      0.0067      0.3108     -0.2425     -0.0934
       111         0.4429     -0.0932     -0.0011      0.4960     -0.0281      0.0331
       112         0.0037     -0.0089      0.0088      0.0367      0.0287      0.0273
       113        -0.4710      0.0793     -0.0154     -0.6228      0.3870     -0.0418
       114        -1.2072      0.1513     -0.0082     -0.1304      0.0937     -0.0383
       115         2.8800      0.0659      0.0077      1.7183     -0.3806     -0.1383
       116        -0.1198     -0.0668      0.0734      0.6334      0.2991      0.1834
       117        -1.0794     -0.1955     -0.0733     -0.3852     -0.0440      0.0367
       118        -2.5213      0.3528      0.0134      0.9300      0.4823      0.1954
       119         0.9059     -0.4695     -0.0477      0.9738      0.0651      0.0400
       120         0.7485      0.2056     -0.0390      1.8638     -0.2626     -0.1122
       121         0.2330      0.1181     -0.0320      1.5787      0.6672     -0.0515
       122        -0.4210      0.4525     -0.0377     -0.8982     -0.1598     -0.1423
       123        -0.3905      0.1524      0.0095     -0.3416     -0.5236      0.1008
       124        -1.8176     -0.0231      0.0197     -0.0340     -0.3535      0.0178
       125         1.5173      0.0681      0.0254      0.7720     -0.2523      0.1020
       126        -1.0284      0.0271      0.0194     -0.0952      0.4922      0.0619
       127        -0.5184     -0.0720      0.0221     -0.6659      0.1241     -0.0533
       128         0.6428      0.3061     -0.0303     -0.1635     -0.3259     -0.1445
       129         0.8701      0.0122      0.0077     -0.0354     -0.0242     -0.0062
       130         0.6342      0.1348      0.0338      0.4536      0.2742     -0.1253
       131         0.5970      0.2097      0.0185     -0.0182      0.4193      0.0924
       132        -1.9074     -0.5621     -0.0472      0.2294      0.2635     -0.0966
       133        -0.6650     -0.1967     -0.0150     -0.2260      0.0180      0.1110
       134        -0.9998     -0.1042     -0.0320      0.4917      0.3462      0.0834
       135         0.2952     -0.1153     -0.0262     -0.6934     -0.0763     -0.0049
       136         0.4014     -0.2172      0.0294      0.0514     -0.4671      0.1907
       137        -0.3732      0.1126      0.0007     -0.2557      0.0207      0.0563
       138         1.9096     -0.1034     -0.0331     -0.7070     -0.2200      0.0223
       139         0.4790      0.2398      0.0269     -0.0434     -0.2808      0.0450
       140         0.4059     -0.0578     -0.0030     -0.0535     -0.1993      0.0966
       141         0.8870      0.1255      0.0378     -0.0873      0.0167     -0.1623
       142        -3.9672      0.0536     -0.0228      0.9741      0.5119     -0.0389
       143        -4.4396      0.1662      0.0497      1.8336     -0.1115     -0.1263
       144        -1.7339     -0.6312      0.0597      2.9931      0.1694     -0.0651
       145        -0.4107     -0.2339      0.0489      1.3656     -0.1382     -0.0356
       146         1.3951      0.1756      0.0209     -0.3823      0.2424     -0.0546
       147        -0.5772     -0.3026      0.0005      1.3843     -0.3541      0.1628
       148        -0.6813     -0.4532     -0.0332      0.3089     -0.2949     -0.1167
       149        -1.0465      0.1765      0.0031     -0.1477     -0.1597      0.0742
       150        -0.7445      0.4294     -0.0086      0.8417     -0.9560     -0.0583
 <0|del|b> * <b|rxdel|0> + <0|del|b> * <b|delr+rdel|0>
 Rotatory Strengths (R) in cgs (10**-40 erg-esu-cm/Gauss)
       state          XX          YY          ZZ    R(velocity)    E-M Angle
         1        33.5334     30.7403   -239.1444    -58.2903       91.12
         2        22.7705     -2.0243     25.7239     15.4900       76.48
         3        21.2746      0.2997     24.7411     15.4385       77.43
         4       -14.6750      3.0394     -1.0023     -4.2126      113.20
         5         1.7115     -6.8651     13.5874      2.8113       80.53
         6        13.1539      3.7280     19.0388     11.9736       46.36
         7        -4.8676    -14.1940    -24.8401    -14.6339      135.99
         8         7.7635     20.2411     28.5787     18.8611       86.92
         9        19.8362     13.5188    -35.4240     -0.6897       90.09
        10       -53.2013     12.9739     -7.9919    -16.0731      143.40
        11       -95.3316      5.8236    -28.4353    -39.3144      163.78
        12        68.7157     18.5597     11.4307     32.9020       79.22
        13         0.1791     -0.4698     -0.5122     -0.2676      113.17
        14        -1.6916     -8.2250      6.8052     -1.0371       91.61
        15       -34.5801      6.0315    -23.9061    -17.4849       92.94
        16       110.7859      3.8067     37.4603     50.6843       75.13
        17       -18.1439     -7.3777     19.2689     -2.0843       92.62
        18       -27.6151      2.7808    -11.7519    -12.1954      127.01
        19         7.8901    -15.4277     -6.2506     -4.5961      105.57
        20        24.1006      2.7232      4.3901     10.4047       89.10
        21       -46.7800    -19.1767     -7.5256    -24.4941      100.31
        22        47.3790    -27.9346      6.4573      8.6339       83.91
        23        -1.0634      5.9494      5.7730      3.5530       80.33
        24       -15.4668     -0.8166     -1.2941     -5.8592      158.64
        25         0.8615     11.7685      5.9004      6.1768       80.80
        26         9.8504     -0.7883     -0.0796      2.9942       67.58
        27       -29.8318      5.0802    -11.8787    -12.2101      138.86
        28        -5.9337     -1.4434    -11.4368     -6.2713       96.42
        29      -108.6166     31.5871    -24.5240    -33.8512      113.09
        30        20.5206     28.9616     10.0534     19.8452       88.28
        31       -33.7435    -25.7132     23.5728    -11.9613       90.76
        32      -109.5465     13.2393     23.9865    -24.1069       91.24
        33        44.8443      2.3423     -4.7092     14.1591       78.67
        34        39.6856    -33.6034     -0.5437      1.8462       86.43
        35        30.7848    -38.0379    -17.2197     -8.1576      111.25
        36        69.2800     15.7935     -3.2786     27.2650       60.28
        37       434.1048     38.6638     32.8569    168.5418       71.99
        38      -241.9109    -13.0864    -27.6475    -94.2149      121.95
        39       -36.2938     10.9917      3.9440     -7.1194       93.10
        40       -54.2289    -13.1044     -0.9460    -22.7598      113.58
        41      -191.6998     81.4433     56.1294    -18.0424       92.44
        42        12.2959    -95.5215    -29.5789    -37.6015      109.57
        43        91.6036    -19.6136      3.0378     25.0093       83.01
[...]
 Alpha virt. eigenvalues --    0.31365   0.31557   0.31743   0.32100   0.32409
 Alpha virt. eigenvalues --    0.32529   0.32728   0.32861   0.33030   0.33435
 Alpha virt. eigenvalues --    0.34113   0.34274   0.34648   0.34832   0.34960
 Alpha virt. eigenvalues --    0.35458   0.35875   0.36879   0.37044   0.37578
 Alpha virt. eigenvalues --    0.38005   0.38451   0.38506   0.38850   0.38910
 Alpha virt. eigenvalues --    0.39255   0.39580   0.40112   0.40476   0.40531
 Alpha virt. eigenvalues --    0.40700   0.41359   0.41518   0.41890   0.42369
 Alpha virt. eigenvalues --    0.43020   0.43299   0.43590   0.43726   0.43880
 Alpha virt. eigenvalues --    0.44079   0.44439   0.44920   0.45106   0.45204
 Alpha virt. eigenvalues --    0.45512   0.45862   0.45924   0.46217   0.46383
 Alpha virt. eigenvalues --    0.46653   0.46735   0.46942   0.47157   0.47379
 Alpha virt. eigenvalues --    0.47686   0.47891   0.48619   0.49046   0.49149
 Alpha virt. eigenvalues --    0.49703   0.49843   0.50020   0.50335   0.50819
 Alpha virt. eigenvalues --    0.51285   0.51467   0.52125   0.52399   0.52646
 Alpha virt. eigenvalues --    0.53006   0.53423   0.54074   0.54492   0.54680
 Alpha virt. eigenvalues --    0.55188   0.55559   0.55711   0.56072   0.57606
 Alpha virt. eigenvalues --    0.57808   0.58125   0.58285   0.58719   0.59301
 Alpha virt. eigenvalues --    0.59369   0.60304   0.60471   0.61062   0.61304
 Alpha virt. eigenvalues --    0.61556   0.61677   0.62549   0.62679   0.62954
 Alpha virt. eigenvalues --    0.63572   0.63696   0.64126   0.64204   0.64750
 Alpha virt. eigenvalues --    0.64883   0.65573   0.66174   0.66551   0.67245
 Alpha virt. eigenvalues --    0.67467   0.67650   0.68646   0.68856   0.69172
 Alpha virt. eigenvalues --    0.69485   0.69815   0.70758   0.71134   0.71260
 Alpha virt. eigenvalues --    0.71518   0.72091   0.72224   0.72500   0.72860
 Alpha virt. eigenvalues --    0.73111   0.73133   0.73727   0.73764   0.74427
 Alpha virt. eigenvalues --    0.74965   0.75268   0.75582   0.76115   0.76750
 Alpha virt. eigenvalues --    0.76836   0.77187   0.78008   0.78164   0.78625
 Alpha virt. eigenvalues --    0.78874   0.79075   0.80105   0.80396   0.80767
 Alpha virt. eigenvalues --    0.81097   0.81681   0.82627   0.83048   0.83503
 Alpha virt. eigenvalues --    0.84151   0.84489   0.85845   0.86152   0.86370
 Alpha virt. eigenvalues --    0.87378   0.87512   0.88032   0.88799   0.89085
 Alpha virt. eigenvalues --    0.89591   0.90098   0.90342   0.90552   0.90817
 Alpha virt. eigenvalues --    0.91242   0.91385   0.91638   0.92123   0.92889
 Alpha virt. eigenvalues --    0.93870   0.95005   0.95345   0.95683   0.96027
 Alpha virt. eigenvalues --    0.96517   0.97518   0.97580   0.98636   0.99611
 Alpha virt. eigenvalues --    0.99860   1.00106   1.01050   1.02009   1.03335
 Alpha virt. eigenvalues --    1.03684   1.03936   1.04971   1.05407   1.06067
 Alpha virt. eigenvalues --    1.06331   1.07793   1.08089   1.08342   1.09258
 Alpha virt. eigenvalues --    1.09479   1.10711   1.11029   1.11535   1.12225
 Alpha virt. eigenvalues --    1.12773   1.13609   1.13893   1.14303   1.14695
 Alpha virt. eigenvalues --    1.14844   1.15529   1.15932   1.16313   1.16799
 Alpha virt. eigenvalues --    1.18328   1.18575   1.19326   1.19836   1.19919
 Alpha virt. eigenvalues --    1.20266   1.20906   1.21685   1.22263   1.22712
 Alpha virt. eigenvalues --    1.23278   1.24123   1.24389   1.24980   1.25353
 Alpha virt. eigenvalues --    1.26012   1.26291   1.26596   1.27366   1.27766
 Alpha virt. eigenvalues --    1.27929   1.29068   1.29444   1.29506   1.30316
 Alpha virt. eigenvalues --    1.31233   1.31417   1.31579   1.32340   1.32882
 Alpha virt. eigenvalues --    1.33385   1.34466   1.34756   1.35307   1.35756
 Alpha virt. eigenvalues --    1.36197   1.37425   1.38120   1.39134   1.39965
 Alpha virt. eigenvalues --    1.40995   1.41287   1.42832   1.43455   1.43739
 Alpha virt. eigenvalues --    1.43745   1.44331   1.44715   1.45257   1.46800
 Alpha virt. eigenvalues --    1.46973   1.47284   1.48880   1.49401   1.49503
 Alpha virt. eigenvalues --    1.49759   1.50226   1.50622   1.51005   1.51462
 Alpha virt. eigenvalues --    1.51830   1.53087   1.53865   1.54030   1.54248
 Alpha virt. eigenvalues --    1.54915   1.55420   1.55830   1.56358   1.56704
 Alpha virt. eigenvalues --    1.56842   1.57406   1.57618   1.57801   1.57962
 Alpha virt. eigenvalues --    1.58304   1.58379   1.58501   1.59424   1.59740
 Alpha virt. eigenvalues --    1.59886   1.60210   1.60563   1.61179   1.61629
 Alpha virt. eigenvalues --    1.62143   1.62509   1.62787   1.63746   1.63968
 Alpha virt. eigenvalues --    1.64330   1.64446   1.65202   1.65490   1.66117
 Alpha virt. eigenvalues --    1.66591   1.67078   1.67558   1.67803   1.68211
 Alpha virt. eigenvalues --    1.68830   1.69009   1.70291   1.70490   1.70795
 Alpha virt. eigenvalues --    1.71223   1.71666   1.72210   1.72536   1.73067
 Alpha virt. eigenvalues --    1.73788   1.74584   1.75288   1.76495   1.76655
 Alpha virt. eigenvalues --    1.76833   1.77413   1.78636   1.78814   1.79061
 Alpha virt. eigenvalues --    1.79310   1.79767   1.80386   1.80931   1.81036
 Alpha virt. eigenvalues --    1.81436   1.81794   1.82281   1.82784   1.83666
 Alpha virt. eigenvalues --    1.84342   1.84932   1.85438   1.85815   1.86044
 Alpha virt. eigenvalues --    1.86527   1.86984   1.87856   1.88061   1.88502
 Alpha virt. eigenvalues --    1.88938   1.89098   1.89370   1.89618   1.90192
 Alpha virt. eigenvalues --    1.91284   1.91436   1.92308   1.93070   1.93442
 Alpha virt. eigenvalues --    1.93780   1.95764   1.96263   1.96838   1.97985
 Alpha virt. eigenvalues --    1.98198   1.98666   1.98974   1.99259   2.00775
 Alpha virt. eigenvalues --    2.01867   2.02299   2.02750   2.03163   2.03726
 Alpha virt. eigenvalues --    2.04521   2.06178   2.06858   2.08203   2.08559
 Alpha virt. eigenvalues --    2.09070   2.10109   2.10657   2.11387   2.11567
 Alpha virt. eigenvalues --    2.12170   2.12491   2.12702   2.13648   2.14857
 Alpha virt. eigenvalues --    2.15468   2.16476   2.16913   2.17671   2.18328
 Alpha virt. eigenvalues --    2.18792   2.19484   2.19631   2.20246   2.20486
 Alpha virt. eigenvalues --    2.20610   2.20990   2.22294   2.22898   2.23111
 Alpha virt. eigenvalues --    2.24410   2.25074   2.25310   2.26814   2.28046
 Alpha virt. eigenvalues --    2.28440   2.29011   2.29262   2.29827   2.30632
 Alpha virt. eigenvalues --    2.31643   2.32026   2.32750   2.33036   2.33985
 Alpha virt. eigenvalues --    2.34735   2.35338   2.36217   2.36974   2.38218
 Alpha virt. eigenvalues --    2.38333   2.38947   2.39725   2.40368   2.40727
 Alpha virt. eigenvalues --    2.41146   2.42355   2.43412   2.44229   2.45252
 Alpha virt. eigenvalues --    2.45926   2.46684   2.47464   2.47758   2.48766
 Alpha virt. eigenvalues --    2.49025   2.49426   2.50254   2.51043   2.51618
 Alpha virt. eigenvalues --    2.52492   2.53250   2.53655   2.53955   2.55424
 Alpha virt. eigenvalues --    2.56398   2.56753   2.57174   2.57366   2.58433
 Alpha virt. eigenvalues --    2.58670   2.59015   2.59398   2.59613   2.60091
 Alpha virt. eigenvalues --    2.60523   2.60801   2.61779   2.61923   2.62402
 Alpha virt. eigenvalues --    2.62872   2.63031   2.63597   2.64160   2.64453
 Alpha virt. eigenvalues --    2.65081   2.65448   2.65503   2.66200   2.66393
 Alpha virt. eigenvalues --    2.66577   2.66636   2.67168   2.68095   2.68417
 Alpha virt. eigenvalues --    2.68651   2.69259   2.69801   2.70040   2.70325
 Alpha virt. eigenvalues --    2.70658   2.71035   2.71170   2.72002   2.72266
 Alpha virt. eigenvalues --    2.72390   2.73321   2.73947   2.74896   2.75851
 Alpha virt. eigenvalues --    2.76185   2.76561   2.76830   2.77753   2.77950
 Alpha virt. eigenvalues --    2.78119   2.78720   2.79101   2.79687   2.80248
 Alpha virt. eigenvalues --    2.80977   2.81905   2.82671   2.83049   2.83268
 Alpha virt. eigenvalues --    2.83490   2.83802   2.84375   2.84810   2.84924
 Alpha virt. eigenvalues --    2.85163   2.85936   2.86424   2.87380   2.88052
 Alpha virt. eigenvalues --    2.88170   2.88686   2.89573   2.90047   2.90331
 Alpha virt. eigenvalues --    2.91195   2.91850   2.92308   2.92630   2.93134
 Alpha virt. eigenvalues --    2.93374   2.93760   2.93791   2.94528   2.95678
 Alpha virt. eigenvalues --    2.96170   2.97270   2.97370   2.98375   2.98724
 Alpha virt. eigenvalues --    2.99313   3.00171   3.00780   3.01152   3.01369
 Alpha virt. eigenvalues --    3.02236   3.02640   3.03146   3.03542   3.04247
 Alpha virt. eigenvalues --    3.04919   3.05377   3.05666   3.06468   3.07320
 Alpha virt. eigenvalues --    3.07925   3.08246   3.08782   3.09086   3.09408
 Alpha virt. eigenvalues --    3.09907   3.10092   3.10212   3.10467   3.11110
 Alpha virt. eigenvalues --    3.11461   3.11599   3.11739   3.12300   3.12393
 Alpha virt. eigenvalues --    3.12969   3.13259   3.13947   3.14134   3.15026
 Alpha virt. eigenvalues --    3.15180   3.15462   3.15900   3.16830   3.17280
 Alpha virt. eigenvalues --    3.17608   3.17753   3.18297   3.18931   3.19288
 Alpha virt. eigenvalues --    3.19806   3.19906   3.20526   3.20841   3.21490
 Alpha virt. eigenvalues --    3.22140   3.22962   3.23447   3.23591   3.23944
 Alpha virt. eigenvalues --    3.24634   3.25538   3.25590   3.25949   3.26821
 Alpha virt. eigenvalues --    3.27132   3.27894   3.28485   3.28703   3.29337
 Alpha virt. eigenvalues --    3.30000   3.30534   3.31262   3.31417   3.31907
 Alpha virt. eigenvalues --    3.32443   3.32643   3.33266   3.33402   3.34341
 Alpha virt. eigenvalues --    3.35131   3.35338   3.35360   3.35949   3.36280
 Alpha virt. eigenvalues --    3.36894   3.37363   3.37653   3.38096   3.38341
 Alpha virt. eigenvalues --    3.38692   3.39385   3.39869   3.40511   3.40611
 Alpha virt. eigenvalues --    3.40719   3.41254   3.41960   3.42157   3.42767
 Alpha virt. eigenvalues --    3.43055   3.43186   3.43610   3.44195   3.44874
 Alpha virt. eigenvalues --    3.45170   3.45640   3.45966   3.46502   3.47801
 Alpha virt. eigenvalues --    3.48164   3.48908   3.49400   3.49533   3.49612
 Alpha virt. eigenvalues --    3.50774   3.51147   3.51568   3.52225   3.52690
 Alpha virt. eigenvalues --    3.53254   3.53675   3.54882   3.55614   3.56138
 Alpha virt. eigenvalues --    3.56874   3.57064   3.57445   3.58330   3.58777
 Alpha virt. eigenvalues --    3.59634   3.60191   3.60782   3.62003   3.62528
 Alpha virt. eigenvalues --    3.62753   3.63313   3.64469   3.65028   3.65674
 Alpha virt. eigenvalues --    3.66749   3.67278   3.67996   3.68717   3.68801
 Alpha virt. eigenvalues --    3.69441   3.69735   3.71884   3.75052   3.75742
 Alpha virt. eigenvalues --    3.76726   3.77404   3.77874   3.78631   3.79537
 Alpha virt. eigenvalues --    3.80419   3.80752   3.82892   3.83218   3.84842
 Alpha virt. eigenvalues --    3.85036   3.86539   3.87201   3.88228   3.89202
 Alpha virt. eigenvalues --    3.89598   3.89969   3.91462   3.92117   3.92430
 Alpha virt. eigenvalues --    3.92985   3.93566   3.94617   3.94966   3.96052
 Alpha virt. eigenvalues --    3.96386   3.97399   3.98938   3.99362   3.99657
 Alpha virt. eigenvalues --    4.02214   4.04262   4.05166   4.06273   4.07109
 Alpha virt. eigenvalues --    4.08646   4.08750   4.09618   4.10991   4.11092
 Alpha virt. eigenvalues --    4.11930   4.12102   4.12969   4.13366   4.13924
 Alpha virt. eigenvalues --    4.14209   4.15113   4.15617   4.15943   4.17906
 Alpha virt. eigenvalues --    4.18749   4.19083   4.19481   4.20055   4.21199
 Alpha virt. eigenvalues --    4.22585   4.23635   4.24287   4.24465   4.25228
 Alpha virt. eigenvalues --    4.25547   4.26358   4.26744   4.28270   4.29591
 Alpha virt. eigenvalues --    4.30626   4.30944   4.32611   4.33484   4.35034
 Alpha virt. eigenvalues --    4.36242   4.37642   4.37878   4.39969   4.40389
 Alpha virt. eigenvalues --    4.41629   4.43340   4.43816   4.46290   4.47137
 Alpha virt. eigenvalues --    4.48334   4.49128   4.50883   4.52149   4.53495
 Alpha virt. eigenvalues --    4.53988   4.54306   4.54352   4.54770   4.55841
 Alpha virt. eigenvalues --    4.58942   4.63007   4.63942   4.65288   4.66341
 Alpha virt. eigenvalues --    4.67005   4.70306   4.71563   4.71650   4.73457
 Alpha virt. eigenvalues --    4.73792   4.74915   4.75242   4.78213   4.79493
 Alpha virt. eigenvalues --    4.81635   4.83110   4.83553   4.85979   4.90086
 Alpha virt. eigenvalues --    4.90970   4.91641   4.91885   4.92834   4.93280
 Alpha virt. eigenvalues --    4.95236   4.96805   4.99491   5.01866   5.03208
 Alpha virt. eigenvalues --    5.04358   5.05053   5.06364   5.06727   5.08903
 Alpha virt. eigenvalues --    5.11086   5.11607   5.12718   5.13053   5.18241
 Alpha virt. eigenvalues --    5.18642   5.21178   5.21560   5.21978   5.22957
 Alpha virt. eigenvalues --    5.26537   5.26748   5.28339   5.32223   5.34541
 Alpha virt. eigenvalues --    5.36732   5.38931   5.44866   5.46374   5.46670
 Alpha virt. eigenvalues --    5.47375   5.59175   5.59990   5.75871   5.78115
 Alpha virt. eigenvalues --    5.81148   5.84424   5.90129   5.91658   6.02267
 Alpha virt. eigenvalues --    6.04171   8.93871   8.94135   9.49879   9.51101
 Alpha virt. eigenvalues --    9.54126   9.55630  20.39861  20.41308  22.25237
 Alpha virt. eigenvalues --   22.26287  22.44408  22.46788  22.62877  22.64611
 Alpha virt. eigenvalues --   22.65923  22.67764  22.70152  22.70196  22.71508
 Alpha virt. eigenvalues --   22.71833  22.74510  22.76335  22.79353  22.79905
 Alpha virt. eigenvalues --   22.82433  22.90621  22.96894  22.96927  23.00507
 Alpha virt. eigenvalues --   23.07189  23.11045  23.43610  23.45071  33.15159
 Alpha virt. eigenvalues --   33.15870
          Condensed to atoms (all electrons):
 Mulliken charges:
               1
     1  C   -0.251578
     2  C   -0.122670
     3  C   -0.261871
     4  C   -0.084649
     5  C    0.158488
     6  S    0.066957
     7  C   -0.008299
     8  C    0.157220
     9  N   -0.035456
    10  C   -0.204681
    11  C   -0.184218
    12  C   -0.172987
    13  C   -0.246178
    14  C   -0.288113
    15  C   -0.419124
    16  C   -0.262275
    17  C   -0.083932
    18  C   -0.271379
    19  C    0.155199
    20  S    0.094985
    21  C   -0.014648
    22  C    0.166077
    23  N   -0.032013
    24  C   -0.201009
    25  C   -0.179917
    26  C   -0.174527
    27  C   -0.249014
    28  C   -0.328660
    29  C   -0.424930
    30  H    0.211786
    31  H    0.174549
    32  H    0.170397
    33  H    0.179605
    34  H    0.195142
    35  H    0.189739
    36  H    0.190538
    37  H    0.213518
    38  H    0.195284
    39  H    0.195772
    40  H    0.172145
    41  H    0.169157
    42  H    0.167133
    43  H    0.173442
    44  H    0.183981
    45  H    0.192570
    46  H    0.195573
    47  H    0.190235
    48  H    0.191109
    49  H    0.217680
    50  H    0.207479
    51  H    0.203421
    52  H    0.170632
    53  H    0.178170
    54  H    0.174144
 Sum of Mulliken charges =   1.00000
 Mulliken charges with hydrogens summed into heavy atoms:
               1
     1  C   -0.039791
     2  C    0.051878
     3  C   -0.091474
     4  C    0.094956
     5  C    0.158488
     6  S    0.066957
     7  C   -0.008299
     8  C    0.157220
     9  N   -0.035456
    10  C   -0.009539
    11  C    0.005521
    12  C    0.017551
    13  C   -0.032660
    14  C    0.102943
    15  C    0.089310
    16  C   -0.088833
    17  C    0.100049
    18  C   -0.078809
    19  C    0.155199
    20  S    0.094985
    21  C   -0.014648
    22  C    0.166077
    23  N   -0.032013
    24  C   -0.005436
    25  C    0.010318
    26  C    0.016582
    27  C   -0.031334
    28  C    0.082241
    29  C    0.098017
 Electronic spatial extent (au):  <R**2>=          33471.8006
 Charge=              1.0000 electrons
 Dipole moment (field-independent basis, Debye):
    X=             -0.7798    Y=              0.5214    Z=              0.6251  Tot=              1.1273
 Quadrupole moment (field-independent basis, Debye-Ang):
   XX=             39.3115   YY=           -146.2782   ZZ=           -194.4157
   XY=             26.7757   XZ=              4.7691   YZ=              5.1775
 Traceless Quadrupole moment (field-independent basis, Debye-Ang):
   XX=            139.7723   YY=            -45.8174   ZZ=            -93.9549
   XY=             26.7757   XZ=              4.7691   YZ=              5.1775
 Octapole moment (field-independent basis, Debye-Ang**2):
  XXX=            -80.4607  YYY=              8.0778  ZZZ=              4.6828  XYY=            -43.8676
  XXY=             20.9613  XXZ=             -8.7840  XZZ=              5.6740  YZZ=             -0.6120
  YYZ=              4.4272  XYZ=             24.7673
 Hexadecapole moment (field-independent basis, Debye-Ang**3):
 XXXX=         -26407.6113 YYYY=          -2474.9860 ZZZZ=           -388.7914 XXXY=            752.6323
 XXXZ=             -8.3466 YYYX=            115.2867 YYYZ=             37.0206 ZZZX=              0.3174
 ZZZY=              6.2739 XXYY=          -6113.3879 XXZZ=          -7838.9583 YYZZ=           -551.2567
 XXYZ=            255.2317 YYXZ=             34.1759 ZZXY=             68.8490
 N-N= 2.585855029803D+03 E-N=-9.539148259299D+03  KE= 1.866105078441D+03
 Unable to Open any file for archive entry.
 1\1\GINC-CN04\SP\RM062X TD-FC\def2TZVP\C25H25N2S2(1+)\2100011873\05-No
 v-2023\0\\# td=(nstates=150) M062X/def2TZVP scrf(smd, solvent=ethanol)
 \\A-4\\1,1\C,0,-3.663712,-1.051948,-0.111557\C,0,-2.389638,-0.479979,-
 0.083458\C,0,-1.194967,-1.195004,-0.064041\C,0,0.058349,-0.578322,-0.0
 35613\C,0,-4.855344,-0.323764,-0.124892\S,0,-4.926662,1.436711,-0.0606
 18\C,0,-6.688233,1.402029,-0.083292\C,0,-7.154955,0.079357,-0.139452\N
 ,0,-6.111858,-0.857268,-0.18359\C,0,-7.565153,2.482703,-0.048916\C,0,-
 8.934956,2.22022,-0.065794\C,0,-9.407072,0.90276,-0.113224\C,0,-8.5293
 61,-0.179533,-0.14882\C,0,-6.366284,-2.306872,-0.248314\C,0,-6.467137,
 -2.955883,1.133259\C,0,1.282162,-1.246091,-0.016052\C,0,2.511127,-0.58
 2889,0.011938\C,0,3.741215,-1.244345,-0.008435\C,0,5.052439,-0.74902,0
 .008808\S,0,6.36259,-1.866987,-0.365292\C,0,7.562983,-0.600806,-0.1655
 2\C,0,6.941017,0.612357,0.169846\N,0,5.544832,0.495298,0.283261\C,0,8.
 946272,-0.695535,-0.30211\C,0,9.708364,0.454142,-0.100703\C,0,9.092982
 ,1.668657,0.22877\C,0,7.709445,1.764545,0.3665\C,0,4.732809,1.623027,0
 .770139\C,0,4.282282,2.569892,-0.344236\H,0,-3.731831,-2.134826,-0.113
 428\H,0,-2.310249,0.607987,-0.076294\H,0,-1.237617,-2.283434,-0.072611
 \H,0,0.079156,0.512977,-0.027655\H,0,-7.192939,3.501353,-0.008437\H,0,
 -9.638205,3.046285,-0.038434\H,0,-10.476042,0.714855,-0.119701\H,0,-8.
 914544,-1.192671,-0.174894\H,0,-7.289207,-2.442036,-0.816617\H,0,-5.57
 0728,-2.757498,-0.845647\H,0,-6.666359,-4.026758,1.023381\H,0,-5.53664
 3,-2.835556,1.696522\H,0,-7.280055,-2.514652,1.717995\H,0,1.279871,-2.
 33528,-0.024232\H,0,2.47239,0.50228,0.013643\H,0,3.691082,-2.326769,-0
 .105404\H,0,9.416627,-1.639291,-0.55871\H,0,10.787594,0.40544,-0.20350
 2\H,0,9.700309,2.555856,0.37729\H,0,7.251286,2.716142,0.611187\H,0,3.8
 87111,1.202637,1.316886\H,0,5.342782,2.154926,1.505154\H,0,3.668719,2.
 054906,-1.089954\H,0,3.6925,3.387191,0.083941\H,0,5.141488,3.005946,-0
 .862588\\Version=ES64L-G16RevC.02\State=1-A\HF=-1873.3791891\RMSD=5.57
 8e-09\PG=C01 [X(C25H25N2S2)]\\@
 The archive entry for this job was punched.


 NOTHING PUZZLES ME MORE THAN TIME AND SPACE; AND YET NOTHING TROUBLES ME LESS
                                                          -- CHARLES LAMB (1810)
 Job cpu time:       5 days 20 hours 54 minutes 25.1 seconds.
 Elapsed time:       0 days  4 hours  4 minutes  9.6 seconds.
 File lengths (MBytes):  RWF=  43424 Int=      0 D2E=      0 Chk=   4592 Scr=     32
 Normal termination of Gaussian 16 at Sun Nov  5 23:51:34 2023.
