 Entering Gaussian System, Link 0=g16
 Initial command:
 /nfs-share/home/2100011873/Gaussian16_AVX2/g16/l1.exe "/nfs-share/home/2100011873/GaussTmp/Gau-92038.inp" -scrdir="/nfs-share/home/2100011873/GaussTmp/"
 Entering Link 1 = /nfs-share/home/2100011873/Gaussian16_AVX2/g16/l1.exe PID=     92040.
  
 Copyright (c) 1988-2021, Gaussian, Inc.  All Rights Reserved.
  
 This is part of the Gaussian(R) 16 program.  It is based on
 the Gaussian(R) 09 system (copyright 2009, Gaussian, Inc.),
 the Gaussian(R) 03 system (copyright 2003, Gaussian, Inc.),
 the Gaussian(R) 98 system (copyright 1998, Gaussian, Inc.),
 the Gaussian(R) 94 system (copyright 1995, Gaussian, Inc.),
 the Gaussian 92(TM) system (copyright 1992, Gaussian, Inc.),
 the Gaussian 90(TM) system (copyright 1990, Gaussian, Inc.),
 the Gaussian 88(TM) system (copyright 1988, Gaussian, Inc.),
 the Gaussian 86(TM) system (copyright 1986, Carnegie Mellon
 University), and the Gaussian 82(TM) system (copyright 1983,
 Carnegie Mellon University). Gaussian is a federally registered
 trademark of Gaussian, Inc.
  
 This software contains proprietary and confidential information,
 including trade secrets, belonging to Gaussian, Inc.
  
 This software is provided under written license and may be
 used, copied, transmitted, or stored only in accord with that
 written license.
  
 The following legend is applicable only to US Government
 contracts under FAR:
  
                    RESTRICTED RIGHTS LEGEND
  
 Use, reproduction and disclosure by the US Government is
 subject to restrictions as set forth in subparagraphs (a)
 and (c) of the Commercial Computer Software - Restricted
 Rights clause in FAR 52.227-19.
  
 Gaussian, Inc.
 340 Quinnipiac St., Bldg. 40, Wallingford CT 06492
  
  
 ---------------------------------------------------------------
 Warning -- This program may not be used in any manner that
 competes with the business of Gaussian, Inc. or will provide
 assistance to any competitor of Gaussian, Inc.  The licensee
 of this program is prohibited from giving any competitor of
 Gaussian, Inc. access to this program.  By using this program,
 the user acknowledges that Gaussian, Inc. is engaged in the
 business of creating and licensing software in the field of
 computational chemistry and represents and warrants to the
 licensee that it is not a competitor of Gaussian, Inc. and that
 it will not use this program in any manner prohibited above.
 ---------------------------------------------------------------
  

 Cite this work as:
 Gaussian 16, Revision C.02,
 M. J. Frisch, G. W. Trucks, H. B. Schlegel, G. E. Scuseria, 
 M. A. Robb, J. R. Cheeseman, G. Scalmani, V. Barone, 
 G. A. Petersson, H. Nakatsuji, X. Li, M. Caricato, A. V. Marenich, 
 J. Bloino, B. G. Janesko, R. Gomperts, B. Mennucci, H. P. Hratchian, 
 J. V. Ortiz, A. F. Izmaylov, J. L. Sonnenberg, D. Williams-Young, 
 F. Ding, F. Lipparini, F. Egidi, J. Goings, B. Peng, A. Petrone, 
 T. Henderson, D. Ranasinghe, V. G. Zakrzewski, J. Gao, N. Rega, 
 G. Zheng, W. Liang, M. Hada, M. Ehara, K. Toyota, R. Fukuda, 
 J. Hasegawa, M. Ishida, T. Nakajima, Y. Honda, O. Kitao, H. Nakai, 
 T. Vreven, K. Throssell, J. A. Montgomery, Jr., J. E. Peralta, 
 F. Ogliaro, M. J. Bearpark, J. J. Heyd, E. N. Brothers, K. N. Kudin, 
 V. N. Staroverov, T. A. Keith, R. Kobayashi, J. Normand, 
 K. Raghavachari, A. P. Rendell, J. C. Burant, S. S. Iyengar, 
 J. Tomasi, M. Cossi, J. M. Millam, M. Klene, C. Adamo, R. Cammi, 
 J. W. Ochterski, R. L. Martin, K. Morokuma, O. Farkas, 
 J. B. Foresman, and D. J. Fox, Gaussian, Inc., Wallingford CT, 2019.
 
 ******************************************
 Gaussian 16:  ES64L-G16RevC.02  7-Dec-2021
                 4-Nov-2023 
 ******************************************
 %nprocshared=32
 Will use up to   32 processors via shared memory.
 %mem=128GB
 ------------------------------------------------------------
 # td=(nstates=150) M062X/def2TZVP scrf(smd, solvent=ethanol)
 ------------------------------------------------------------
 1/38=1,172=1/1;
 2/12=2,17=6,18=5,40=1/2;
 3/5=44,7=101,11=9,25=1,30=1,70=32201,72=4,74=-55/1,2,3,8;
 4//1;
 5/5=2,38=5,53=4/2;
 8/6=1,10=1,108=150/1;
 9/41=150,42=1,70=2/14;
 6/7=2,8=2,9=2,10=2/1;
 99/5=1,9=1/99;
 ---
 A-1
 ---
 Symbolic Z-matrix:
 Charge =  1 Multiplicity = 1
 C                    -1.25921   0.2167   -0.03937 
 C                     0.        0.82894  -0.00012 
 C                     1.25921   0.21668   0.03925 
 N                     2.43346   0.90485   0.146 
 S                    -1.55756  -1.51215   0.05388 
 C                    -3.29767  -1.25882  -0.02728 
 C                    -3.5899    0.10887  -0.1183 
 N                    -2.43347   0.90486  -0.14611 
 S                     1.55755  -1.51217  -0.05392 
 C                     3.29766  -1.25885   0.0273 
 C                     3.5899    0.10884   0.11825 
 C                    -4.30157  -2.22442  -0.00362 
 C                    -5.62465  -1.79213  -0.06698 
 C                    -5.92564  -0.42569  -0.14901 
 C                    -4.92039   0.53827  -0.17427 
 C                     4.30156  -2.22445   0.00372 
 C                     5.62464  -1.79215   0.06707 
 C                     5.92564  -0.42571   0.14902 
 C                     4.92038   0.53826   0.17421 
 C                    -2.51035   2.37353  -0.25723 
 C                    -2.56643   3.07379   1.10152 
 C                     2.51034   2.3735    0.2573 
 C                     2.56651   3.07393  -1.10136 
 H                     0.00001   1.90904  -0.00021 
 H                    -4.06058  -3.28031   0.06397 
 H                    -6.42724  -2.52213  -0.04909 
 H                    -6.96206  -0.10651  -0.19134 
 H                    -5.17675   1.59021  -0.22813 
 H                     4.06057  -3.28035  -0.06382 
 H                     6.42723  -2.52216   0.04923 
 H                     6.96205  -0.10653   0.19134 
 H                     5.17673   1.5902    0.22802 
 H                    -1.65749   2.70849  -0.85213 
 H                    -3.39812   2.59717  -0.85222 
 H                    -3.44119   2.75206   1.67457 
 H                    -1.67384   2.86336   1.69908 
 H                    -2.63423   4.15636   0.9543 
 H                     1.65744   2.70838   0.85218 
 H                     3.39807   2.59706   0.85237 
 H                     3.44133   2.75234  -1.67437 
 H                     1.67399   2.86351  -1.69903 
 H                     2.63421   4.15649  -0.95399 
 
                          Input orientation:                          
 ---------------------------------------------------------------------
 Center     Atomic      Atomic             Coordinates (Angstroms)
 Number     Number       Type             X           Y           Z
 ---------------------------------------------------------------------
      1          6           0       -1.259214    0.216698   -0.039367
      2          6           0        0.000003    0.828935   -0.000122
      3          6           0        1.259209    0.216684    0.039249
      4          7           0        2.433464    0.904848    0.145998
      5         16           0       -1.557561   -1.512152    0.053882
      6          6           0       -3.297665   -1.258824   -0.027283
      7          6           0       -3.589904    0.108866   -0.118299
      8          7           0       -2.433474    0.904863   -0.146106
      9         16           0        1.557549   -1.512171   -0.053923
     10          6           0        3.297657   -1.258850    0.027304
     11          6           0        3.589900    0.108842    0.118251
     12          6           0       -4.301571   -2.224422   -0.003624
     13          6           0       -5.624645   -1.792125   -0.066975
     14          6           0       -5.925643   -0.425687   -0.149009
     15          6           0       -4.920394    0.538274   -0.174272
     16          6           0        4.301563   -2.224450    0.003718
     17          6           0        5.624635   -1.792149    0.067066
     18          6           0        5.925635   -0.425707    0.149021
     19          6           0        4.920384    0.538258    0.174213
     20          6           0       -2.510348    2.373529   -0.257226
     21          6           0       -2.566433    3.073786    1.101522
     22          6           0        2.510339    2.373497    0.257299
     23          6           0        2.566508    3.073929   -1.101357
     24          1           0        0.000014    1.909040   -0.000214
     25          1           0       -4.060576   -3.280313    0.063971
     26          1           0       -6.427238   -2.522132   -0.049094
     27          1           0       -6.962056   -0.106514   -0.191342
     28          1           0       -5.176748    1.590213   -0.228130
     29          1           0        4.060566   -3.280345   -0.063815
     30          1           0        6.427230   -2.522156    0.049231
     31          1           0        6.962048   -0.106532    0.191339
     32          1           0        5.176733    1.590201    0.228019
     33          1           0       -1.657488    2.708489   -0.852128
     34          1           0       -3.398115    2.597174   -0.852215
     35          1           0       -3.441185    2.752064    1.674572
     36          1           0       -1.673838    2.863356    1.699082
     37          1           0       -2.634230    4.156364    0.954302
     38          1           0        1.657436    2.708379    0.852183
     39          1           0        3.398074    2.597059    0.852370
     40          1           0        3.441334    2.752344   -1.674368
     41          1           0        1.673988    2.863510   -1.699033
     42          1           0        2.634214    4.156493   -0.953990
 ---------------------------------------------------------------------
                    Distance matrix (angstroms):
                    1          2          3          4          5
     1  C    0.000000
     2  C    1.400715   0.000000
     3  C    2.519650   1.400715   0.000000
     4  N    3.760822   2.439026   1.365225   0.000000
     5  S    1.756880   2.812403   3.305039   4.666761   0.000000
     6  C    2.516465   3.903087   4.790266   6.128405   1.760320
     7  C    2.334518   3.663318   4.852870   6.081480   2.605334
     8  N    1.365229   2.439034   3.760832   4.875696   2.578600
     9  S    3.305050   2.812405   1.756880   2.578600   3.116975
    10  C    4.790278   3.903091   2.516468   2.332918   4.861894
    11  C    4.852874   3.663319   2.334522   1.404186   5.397047
    12  C    3.900805   5.275087   6.073147   7.428015   2.835529
    13  C    4.805530   6.205730   7.171753   8.500126   4.078500
    14  C    4.711713   6.058839   7.215967   8.469476   4.505742
    15  C    3.677751   4.932050   6.191648   7.369951   3.945244
    16  C    6.073162   5.275092   3.900810   3.647265   5.902476
    17  C    7.171762   6.205730   4.805531   4.178947   7.187664
    18  C    7.215970   6.058835   4.711714   3.737064   7.562251
    19  C    6.191643   4.932042   3.677748   2.513952   6.795766
    20  C    2.502942   2.958671   4.353095   5.173093   4.012868
    21  C    3.342664   3.583234   4.891523   5.533199   4.811050
    22  C    4.353082   2.958669   2.502941   1.474865   5.629161
    23  C    4.891599   3.583248   3.342733   2.505695   6.274923
    24  H    2.109789   1.080105   2.109786   2.636562   3.759458
    25  H    4.481896   5.777398   6.366295   7.726245   3.064568
    26  H    5.848911   7.248550   8.160293   9.502331   4.974376
    27  H    5.714015   7.027225   8.230846   9.455816   5.589680
    28  H    4.155628   5.237393   6.586320   7.650165   4.775219
    29  H    6.366315   5.777405   4.481901   4.495256   5.890985
    30  H    8.160306   7.248551   5.848913   5.263448   8.048417
    31  H    8.230848   7.027220   5.714015   4.640368   8.635879
    32  H    6.586305   5.237376   4.155620   2.828774   7.416578
    33  H    2.651080   2.646869   3.938371   4.580968   4.317945
    34  H    3.301861   3.924275   5.305856   6.153675   4.592952
    35  H    3.758546   4.283083   5.585350   6.345096   4.935404
    36  H    3.193574   3.134949   4.285170   4.808092   4.676032
    37  H    4.289407   4.349930   5.614024   6.075132   5.839696
    38  H    3.938297   2.646851   2.651036   2.086538   5.365293
    39  H    5.305812   3.924270   3.301832   2.071958   6.487027
    40  H    5.585506   4.283148   3.758687   2.782584   6.794242
    41  H    4.285298   3.134967   3.193643   2.795943   5.715071
    42  H    5.614027   4.349894   4.289436   3.438527   7.121820
                    6          7          8          9         10
     6  C    0.000000
     7  C    1.401522   0.000000
     8  N    2.332914   1.404178   0.000000
     9  S    4.861892   5.397053   4.666778   0.000000
    10  C    6.595548   7.023556   6.128425   1.760325   0.000000
    11  C    7.023549   7.183700   6.081494   2.605336   1.401520
    12  C    1.393114   2.442100   3.647261   5.902467   7.660389
    13  C    2.387639   2.785062   4.178945   7.187660   8.938722
    14  C    2.759566   2.396324   3.737060   7.562252   9.262533
    15  C    2.425782   1.399188   2.513951   6.795775   8.414669
    16  C    7.660396   8.230097   7.428039   2.835538   1.393114
    17  C    8.938723   9.410417   8.500143   4.078506   2.387638
    18  C    9.262528   9.534291   8.469488   4.505748   2.759567
    19  C    8.414656   8.526133   7.369955   3.945246   2.425783
    20  C    3.723806   2.512656   1.474868   5.629190   6.856242
    21  C    4.536564   3.365443   2.505690   6.274813   7.369751
    22  C    6.856213   6.517867   5.173095   4.012865   3.723803
    23  C    7.369865   6.903580   5.533279   4.811178   4.536676
    24  H    4.572831   4.017721   2.636573   3.759453   4.572826
    25  H    2.162586   3.426556   4.495252   5.890972   7.630940
    26  H    3.375004   3.870065   5.263445   8.048408   9.806901
    27  H    3.844801   3.379813   4.640365   8.635880  10.326538
    28  H    3.418816   2.173597   2.828778   7.416596   8.944157
    29  H    7.630953   8.367760   7.726273   3.064577   2.162585
    30  H    9.806908  10.358249   9.502352   4.974385   3.375004
    31  H   10.326533  10.558691   9.455825   5.589685   3.844802
    32  H    8.944135   8.897652   7.650157   4.775217   3.418816
    33  H    4.371513   3.321261   2.086549   5.365404   6.408326
    34  H    3.944531   2.601364   2.071965   6.487110   7.776621
    35  H    4.359373   3.197343   2.782535   6.794022   8.013296
    36  H    4.754947   3.815940   2.795972   5.714904   6.671071
    37  H    5.543277   4.294884   3.438526   7.121785   8.085243
    38  H    6.408212   5.935813   4.580916   4.317875   4.371459
    39  H    7.776538   7.480985   6.153652   4.592893   3.944471
    40  H    8.013518   7.671221   6.345245   4.935643   4.359588
    41  H    6.671261   6.147792   4.808235   4.676166   4.755039
    42  H    8.085273   7.471366   6.075133   5.839784   5.543378
                   11         12         13         14         15
    11  C    0.000000
    12  C    8.230084   0.000000
    13  C    9.410410   1.393348   0.000000
    14  C    9.534291   2.427796   1.401600   0.000000
    15  C    8.526141   2.836292   2.436851   1.392977   0.000000
    16  C    2.442096   8.603137   9.935870  10.385308   9.628542
    17  C    2.785055   9.935865  11.250079  11.632834  10.802164
    18  C    2.396320  10.385298  11.632829  11.855025  10.893582
    19  C    1.399185   9.628524  10.802152  10.893574   9.846946
    20  C    6.517884   4.941047   5.204586   4.417189   3.030407
    21  C    6.903488   5.683578   5.864737   5.009434   3.687493
    22  C    2.512658   8.222594   9.145246   8.897545   7.666165
    23  C    3.365489   8.743458   9.583497   9.234225   7.958815
    24  H    4.017714   5.965665   6.733489   6.370754   5.110745
    25  H    8.367742   1.085151   2.162906   3.416537   3.921435
    26  H   10.358237   2.146895   1.085074   2.157930   3.413551
    27  H   10.558693   3.405724   2.155324   1.085272   2.141127
    28  H    8.897671   3.920176   3.415669   2.151966   1.084064
    29  H    3.426553   8.428756   9.798884  10.386563   9.759697
    30  H    3.870059  10.733062  12.074524  12.531079  11.755201
    31  H    3.379809  11.462660  12.701685  12.896134  11.905540
    32  H    2.173594  10.219748  11.322408  11.290204  10.159742
    33  H    5.935898   5.660808   6.050647   5.341777   3.976918
    34  H    7.481040   4.978366   4.983973   4.002572   2.648775
    35  H    7.671044   5.321844   5.333867   4.426746   3.241473
    36  H    6.147627   5.974083   6.356205   5.684284   4.410849
    37  H    7.471359   6.664239   6.735734   5.748555   4.426150
    38  H    3.321245   7.782975   8.609767   8.266066   7.002201
    39  H    2.601337   9.124908  10.075693   9.852485   8.630730
    40  H    3.197445   9.354794  10.267808  10.008339   8.779003
    41  H    3.815945   8.029245   8.809574   8.424713   7.156640
    42  H    4.294941   9.472296  10.216732   9.742460   8.412584
                   16         17         18         19         20
    16  C    0.000000
    17  C    1.393347   0.000000
    18  C    2.427797   1.401600   0.000000
    19  C    2.836294   2.436852   1.392980   0.000000
    20  C    8.222629   9.145271   8.897560   7.666168   0.000000
    21  C    8.743332   9.583372   9.234118   7.958721   1.529608
    22  C    4.941043   5.204578   4.417184   3.030400   5.046983
    23  C    5.683698   5.864816   5.009454   3.687470   5.193995
    24  H    5.965658   6.733475   6.370738   5.110725   2.565877
    25  H    8.428751   9.798875  10.386550   9.759676   5.871312
    26  H   10.733060  12.074519  12.531070  11.755185   6.273184
    27  H   11.462670  12.701690  12.896135  11.905534   5.096338
    28  H   10.219774  11.322429  11.290221  10.159752   2.779230
    29  H    1.085152   2.162908   3.416539   3.921438   8.670675
    30  H    2.146896   1.085075   2.157928   3.413552  10.195192
    31  H    3.405724   2.155324   1.085272   2.141130   9.801949
    32  H    3.920178   3.415672   2.151971   1.084064   7.742111
    33  H    7.783100   8.609877   8.266150   7.002262   1.092464
    34  H    9.125005  10.075775   9.852543   8.630766   1.091860
    35  H    9.354549  10.267572  10.008139   8.778830   2.177519
    36  H    8.029038   8.809365   8.424525   7.156470   2.183305
    37  H    9.472255  10.216694   9.742440   8.412575   2.159085
    38  H    5.660751   6.050606   5.341765   3.976921   4.325891
    39  H    4.978298   4.983916   4.002547   2.648771   6.015864
    40  H    5.322072   5.334024   4.426794   3.241453   6.129789
    41  H    5.974182   6.356247   5.684255   4.410775   4.452814
    42  H    6.664360   6.735838   5.748621   4.426177   5.489167
                   21         22         23         24         25
    21  C    0.000000
    22  C    5.193913   0.000000
    23  C    5.585674   1.529610   0.000000
    24  H    3.026071   2.565885   3.025950   0.000000
    25  H    6.609353   8.670632   9.254870   6.589529   0.000000
    26  H    6.895218  10.195163  10.644746   7.806872   2.487712
    27  H    5.577392   9.801939  10.086470   7.250476   4.307757
    28  H    3.283703   7.742124   7.932336   5.191576   5.005316
    29  H    9.254734   5.871307   6.609501   6.589525   8.122147
    30  H   10.644616   6.273177   6.895302   7.806859  10.515184
    31  H   10.086367   5.096333   5.577380   7.250458  11.471153
    32  H    7.932254   2.779221   3.283590   5.191548  10.443979
    33  H    2.185491   4.325948   4.247094   2.027853   6.517654
    34  H    2.176222   6.015886   5.988831   3.570254   5.985241
    35  H    1.094113   6.129650   6.625840   3.918858   6.274333
    36  H    1.094570   4.452644   5.085994   2.569067   6.790786
    37  H    1.094644   5.489173   5.696058   3.591769   7.624390
    38  H    4.246971   1.092463   2.185488   2.027948   8.317534
    39  H    5.988713   1.091862   2.176225   3.570306   9.528722
    40  H    6.625870   2.177525   1.094111   3.918754   9.782302
    41  H    5.086108   2.183307   1.094571   2.568888   8.587198
    42  H    5.695973   2.159083   1.094644   3.591621  10.057959
                   26         27         28         29         30
    26  H    0.000000
    27  H    2.478200   0.000000
    28  H    4.301995   2.463242   0.000000
    29  H   10.515186  11.471167  10.444008   0.000000
    30  H   12.854844  13.607578  12.314252   2.487716   0.000000
    31  H   13.607568  13.929362  12.263982   4.307759   2.478198
    32  H   12.314228  12.263968  10.363525   5.005319   4.301998
    33  H    7.124239   6.041467   3.745011   8.317675   9.671337
    34  H    6.002323   4.521986   2.137051   9.528837  11.115644
    35  H    6.301165   4.904043   2.825306   9.782035  11.306845
    36  H    7.392862   6.352880   4.195881   8.586982   9.866765
    37  H    7.745710   6.181805   3.801010  10.057907  11.293000
    38  H    9.671220   9.127333   7.008812   6.517584   7.124196
    39  H   11.115553  10.757831   8.701080   5.985162   6.002265
    40  H   11.307092  10.890499   8.815526   6.274605   6.301327
    41  H    9.866980   9.256102   7.121617   6.790924   7.392911
    42  H   11.293041  10.528213   8.253714   7.624530   7.745823
                   31         32         33         34         35
    31  H    0.000000
    32  H    2.463249   0.000000
    33  H    9.127407   7.008842   0.000000
    34  H   10.757881   8.701087   1.744183   0.000000
    35  H   10.890308   8.815382   3.093168   2.531896   0.000000
    36  H    9.255920   7.121466   2.555958   3.090809   1.771017
    37  H   10.528198   8.253716   2.512679   2.505613   1.772575
    38  H    6.041469   3.745044   3.727385   5.336285   5.164704
    39  H    4.521977   2.137102   5.336332   7.006696   6.890247
    40  H    4.904025   2.825113   5.164880   6.890434   7.654049
    41  H    6.352813   4.195720   3.440932   5.149200   6.128509
    42  H    6.181853   3.800974   4.530541   6.231439   6.766996
                   36         37         38         39         40
    36  H    0.000000
    37  H    1.774520   0.000000
    38  H    3.440733   4.530506   0.000000
    39  H    5.148993   6.231413   1.744194   0.000000
    40  H    6.128415   6.767101   3.093167   2.531875   0.000000
    41  H    4.770233   5.222298   2.555982   3.090813   1.771010
    42  H    5.222098   5.603399   2.512646   2.505644   1.772575
                   41         42
    41  H    0.000000
    42  H    1.774522   0.000000
 Stoichiometry    C19H19N2S2(1+)
 Framework group  C1[X(C19H19N2S2)]
 Deg. of freedom   120
 Full point group                 C1      NOp   1
 Largest Abelian subgroup         C1      NOp   1
 Largest concise Abelian subgroup C1      NOp   1
                         Standard orientation:                         
 ---------------------------------------------------------------------
 Center     Atomic      Atomic             Coordinates (Angstroms)
 Number     Number       Type             X           Y           Z
 ---------------------------------------------------------------------
      1          6           0       -1.259214    0.216698   -0.039367
      2          6           0        0.000003    0.828935   -0.000122
      3          6           0        1.259209    0.216684    0.039249
      4          7           0        2.433464    0.904848    0.145998
      5         16           0       -1.557561   -1.512152    0.053882
      6          6           0       -3.297665   -1.258824   -0.027283
      7          6           0       -3.589904    0.108866   -0.118299
      8          7           0       -2.433474    0.904863   -0.146106
      9         16           0        1.557549   -1.512171   -0.053923
     10          6           0        3.297657   -1.258850    0.027304
     11          6           0        3.589900    0.108842    0.118251
     12          6           0       -4.301571   -2.224422   -0.003624
     13          6           0       -5.624645   -1.792125   -0.066975
     14          6           0       -5.925643   -0.425687   -0.149009
     15          6           0       -4.920394    0.538274   -0.174272
     16          6           0        4.301563   -2.224450    0.003718
     17          6           0        5.624635   -1.792149    0.067066
     18          6           0        5.925635   -0.425707    0.149021
     19          6           0        4.920384    0.538258    0.174213
     20          6           0       -2.510348    2.373529   -0.257226
     21          6           0       -2.566433    3.073786    1.101522
     22          6           0        2.510339    2.373497    0.257299
     23          6           0        2.566508    3.073929   -1.101357
     24          1           0        0.000014    1.909040   -0.000214
     25          1           0       -4.060576   -3.280313    0.063971
     26          1           0       -6.427238   -2.522132   -0.049094
     27          1           0       -6.962056   -0.106514   -0.191342
     28          1           0       -5.176748    1.590213   -0.228130
     29          1           0        4.060566   -3.280345   -0.063815
     30          1           0        6.427230   -2.522156    0.049231
     31          1           0        6.962048   -0.106532    0.191339
     32          1           0        5.176733    1.590201    0.228019
     33          1           0       -1.657488    2.708489   -0.852128
     34          1           0       -3.398115    2.597174   -0.852215
     35          1           0       -3.441185    2.752064    1.674572
     36          1           0       -1.673838    2.863356    1.699082
     37          1           0       -2.634230    4.156364    0.954302
     38          1           0        1.657436    2.708379    0.852183
     39          1           0        3.398074    2.597059    0.852370
     40          1           0        3.441334    2.752344   -1.674368
     41          1           0        1.673988    2.863510   -1.699033
     42          1           0        2.634214    4.156493   -0.953990
 ---------------------------------------------------------------------
 Rotational constants (GHZ):           0.5197631           0.1187459           0.0985340
 Standard basis: def2TZVP (5D, 7F)
 There are   954 symmetry adapted cartesian basis functions of A   symmetry.
 There are   839 symmetry adapted basis functions of A   symmetry.
   839 basis functions,  1361 primitive gaussians,   954 cartesian basis functions
    89 alpha electrons       89 beta electrons
       nuclear repulsion energy      2127.8579715027 Hartrees.
 NAtoms=   42 NActive=   42 NUniq=   42 SFac= 1.00D+00 NAtFMM=   60 NAOKFM=F Big=F
 Integral buffers will be    131072 words long.
 Regular integral format.
 Two-electron integral symmetry is turned on.
 ------------------------------------------------------------------------------
 Polarizable Continuum Model (PCM)
 =================================
 Model                : PCM.
 Atomic radii         : SMD-Coulomb.
 Polarization charges : Total charges.
 Charge compensation  : None.
 Solution method      : On-the-fly selection.
 Cavity type          : VdW (van der Waals Surface) (Alpha=1.000).
 Cavity algorithm     : GePol (No added spheres)
                        Default sphere list used, NSphG=   42.
                        Lebedev-Laikov grids with approx.  5.0 points / Ang**2.
                        Smoothing algorithm: York/Karplus (Gamma=1.0000).
                        Polarization charges: spherical gaussians, with
                                              point-specific exponents (IZeta= 3).
                        Self-potential: point-specific (ISelfS= 7).
                        Self-field    : sphere-specific E.n sum rule (ISelfD= 2).
 Solvent              : Ethanol, Eps=  24.852000 Eps(inf)=   1.852593
 ------------------------------------------------------------------------------
 ------------------------------------------------------------------------------
 Atomic radii for non-electrostatic terms: SMD-CDS.
 ------------------------------------------------------------------------------
 Nuclear repulsion after PCM non-electrostatic terms =     2127.8526197948 Hartrees.
 One-electron integrals computed using PRISM.
   1 Symmetry operations used in ECPInt.
 ECPInt:  NShTT=   55611 NPrTT=  173757 LenC2=   45262 LenP2D=   98157.
 LDataN:  DoStor=T MaxTD1= 6 Len=  172
 NBasis=   839 RedAO= T EigKep=  6.97D-06  NBF=   839
 NBsUse=   839 1.00D-06 EigRej= -1.00D+00 NBFU=   839
 ExpMin= 9.52D-02 ExpMax= 6.07D+04 ExpMxC= 2.07D+03 IAcc=3 IRadAn=         5 AccDes= 0.00D+00
 Harris functional with IExCor= 1009 and IRadAn=       5 diagonalized for initial guess.
 HarFok:  IExCor= 1009 AccDes= 0.00D+00 IRadAn=         5 IDoV= 1 UseB2=F ITyADJ=14
 ICtDFT=  3500011 ScaDFX=  1.000000  1.000000  1.000000  1.000000
 FoFCou: FMM=F IPFlag=           0 FMFlag=      100000 FMFlg1=           0
         NFxFlg=           0 DoJE=T BraDBF=F KetDBF=T FulRan=T
         wScrn=  0.000000 ICntrl=       500 IOpCl=  0 I1Cent=   200000004 NGrid=           0
         NMat0=    1 NMatS0=      1 NMatT0=    0 NMatD0=    1 NMtDS0=    0 NMtDT0=    0
 Petite list used in FoFCou.
 Requested convergence on RMS density matrix=1.00D-08 within 128 cycles.
 Requested convergence on MAX density matrix=1.00D-06.
 Requested convergence on             energy=1.00D-06.
 No special actions if energy rises.
 Inv3:  Mode=1 IEnd=    30470907.
 Iteration    1 A*A^-1 deviation from unit magnitude is 3.11D-15 for    552.
 Iteration    1 A*A^-1 deviation from orthogonality  is 1.89D-15 for   1979     64.
 Iteration    1 A^-1*A deviation from unit magnitude is 3.55D-15 for   3042.
 Iteration    1 A^-1*A deviation from orthogonality  is 4.70D-09 for   2609   2551.
 Iteration    2 A*A^-1 deviation from unit magnitude is 2.44D-15 for   2400.
 Iteration    2 A*A^-1 deviation from orthogonality  is 4.73D-15 for   1512    703.
 Iteration    2 A^-1*A deviation from unit magnitude is 1.55D-15 for   1832.
 Iteration    2 A^-1*A deviation from orthogonality  is 1.31D-15 for    936      2.
 Error on total polarization charges =  0.05867
 SCF Done:  E(RM062X) =  -1641.18867058     A.U. after   13 cycles
            NFock= 13  Conv=0.66D-08     -V/T= 2.0037
 SMD-CDS (non-electrostatic) energy       (kcal/mol) =      -3.36
 (included in total energy above)
 DoSCS=F DFT=T ScalE2(SS,OS)=  1.000000  1.000000
 ExpMin= 9.52D-02 ExpMax= 6.07D+04 ExpMxC= 2.07D+03 IAcc=3 IRadAn=         5 AccDes= 0.00D+00
 HarFok:  IExCor=  205 AccDes= 0.00D+00 IRadAn=         5 IDoV=-2 UseB2=F ITyADJ=14
 ICtDFT= 12500011 ScaDFX=  1.000000  1.000000  1.000000  1.000000
 GSVD:  LWork=       -1209 too small for GESVD, short by        5270 words or        5270 for optimal perf.
 Range of M.O.s used for correlation:    32   839
 NBasis=   839 NAE=    89 NBE=    89 NFC=    31 NFV=     0
 NROrb=    808 NOA=    58 NOB=    58 NVA=   750 NVB=   750

 **** Warning!!: The largest alpha MO coefficient is  0.55970400D+02

 NEqPCM:  Using non-equilibrium solvation (IEInf=1, Eps=  24.8520, EpsInf=   1.8526)
 Inv3:  Mode=1 IEnd=    30470907.
 Iteration    1 A*A^-1 deviation from unit magnitude is 3.55D-15 for    249.
 Iteration    1 A*A^-1 deviation from orthogonality  is 2.09D-15 for   2531   2043.
 Iteration    1 A^-1*A deviation from unit magnitude is 3.33D-15 for    249.
 Iteration    1 A^-1*A deviation from orthogonality  is 2.87D-15 for   1067    948.
 Orbital symmetries:
       Occupied  (A) (A) (A) (A) (A) (A) (A) (A) (A) (A) (A) (A)
                 (A) (A) (A) (A) (A) (A) (A) (A) (A) (A) (A) (A)
                 (A) (A) (A) (A) (A) (A) (A) (A) (A) (A) (A) (A)
                 (A) (A) (A) (A) (A) (A) (A) (A) (A) (A) (A) (A)
                 (A) (A) (A) (A) (A) (A) (A) (A) (A) (A) (A) (A)
                 (A) (A) (A) (A) (A) (A) (A) (A) (A) (A) (A) (A)
                 (A) (A) (A) (A) (A) (A) (A) (A) (A) (A) (A) (A)
                 (A) (A) (A) (A) (A)
       Virtual   (A) (A) (A) (A) (A) (A) (A) (A) (A) (A) (A) (A)
                 (A) (A) (A) (A) (A) (A) (A) (A) (A) (A) (A) (A)
                 (A) (A) (A) (A) (A) (A) (A) (A) (A) (A) (A) (A)
                 (A) (A) (A) (A) (A) (A) (A) (A) (A) (A) (A) (A)
                 (A) (A) (A) (A) (A) (A) (A) (A) (A) (A) (A) (A)
                 (A) (A) (A) (A) (A) (A) (A) (A) (A) (A) (A) (A)
                 (A) (A) (A) (A) (A) (A) (A) (A) (A) (A) (A) (A)
                 (A) (A) (A) (A) (A) (A) (A) (A) (A) (A) (A) (A)
                 (A) (A) (A) (A) (A) (A) (A) (A) (A) (A) (A) (A)
                 (A) (A) (A) (A) (A) (A) (A) (A) (A) (A) (A) (A)
                 (A) (A) (A) (A) (A) (A) (A) (A) (A) (A) (A) (A)
                 (A) (A) (A) (A) (A) (A) (A) (A) (A) (A) (A) (A)
                 (A) (A) (A) (A) (A) (A) (A) (A) (A) (A) (A) (A)
                 (A) (A) (A) (A) (A) (A) (A) (A) (A) (A) (A) (A)
                 (A) (A) (A) (A) (A) (A) (A) (A) (A) (A) (A) (A)
                 (A) (A) (A) (A) (A) (A) (A) (A) (A) (A) (A) (A)
                 (A) (A) (A) (A) (A) (A) (A) (A) (A) (A) (A) (A)
                 (A) (A) (A) (A) (A) (A) (A) (A) (A) (A) (A) (A)
                 (A) (A) (A) (A) (A) (A) (A) (A) (A) (A) (A) (A)
                 (A) (A) (A) (A) (A) (A) (A) (A) (A) (A) (A) (A)
                 (A) (A) (A) (A) (A) (A) (A) (A) (A) (A) (A) (A)
                 (A) (A) (A) (A) (A) (A) (A) (A) (A) (A) (A) (A)
                 (A) (A) (A) (A) (A) (A) (A) (A) (A) (A) (A) (A)
                 (A) (A) (A) (A) (A) (A) (A) (A) (A) (A) (A) (A)
                 (A) (A) (A) (A) (A) (A) (A) (A) (A) (A) (A) (A)
                 (A) (A) (A) (A) (A) (A) (A) (A) (A) (A) (A) (A)
                 (A) (A) (A) (A) (A) (A) (A) (A) (A) (A) (A) (A)
                 (A) (A) (A) (A) (A) (A) (A) (A) (A) (A) (A) (A)
                 (A) (A) (A) (A) (A) (A) (A) (A) (A) (A) (A) (A)
                 (A) (A) (A) (A) (A) (A) (A) (A) (A) (A) (A) (A)
                 (A) (A) (A) (A) (A) (A) (A) (A) (A) (A) (A) (A)
                 (A) (A) (A) (A) (A) (A) (A) (A) (A) (A) (A) (A)
                 (A) (A) (A) (A) (A) (A) (A) (A) (A) (A) (A) (A)
                 (A) (A) (A) (A) (A) (A) (A) (A) (A) (A) (A) (A)
                 (A) (A) (A) (A) (A) (A) (A) (A) (A) (A) (A) (A)
                 (A) (A) (A) (A) (A) (A) (A) (A) (A) (A) (A) (A)
                 (A) (A) (A) (A) (A) (A) (A) (A) (A) (A) (A) (A)
                 (A) (A) (A) (A) (A) (A) (A) (A) (A) (A) (A) (A)
                 (A) (A) (A) (A) (A) (A) (A) (A) (A) (A) (A) (A)
                 (A) (A) (A) (A) (A) (A) (A) (A) (A) (A) (A) (A)
                 (A) (A) (A) (A) (A) (A) (A) (A) (A) (A) (A) (A)
                 (A) (A) (A) (A) (A) (A) (A) (A) (A) (A) (A) (A)
                 (A) (A) (A) (A) (A) (A) (A) (A) (A) (A) (A) (A)
                 (A) (A) (A) (A) (A) (A) (A) (A) (A) (A) (A) (A)
                 (A) (A) (A) (A) (A) (A) (A) (A) (A) (A) (A) (A)
                 (A) (A) (A) (A) (A) (A) (A) (A) (A) (A) (A) (A)
                 (A) (A) (A) (A) (A) (A) (A) (A) (A) (A) (A) (A)
                 (A) (A) (A) (A) (A) (A) (A) (A) (A) (A) (A) (A)
                 (A) (A) (A) (A) (A) (A) (A) (A) (A) (A) (A) (A)
                 (A) (A) (A) (A) (A) (A) (A) (A) (A) (A) (A) (A)
                 (A) (A) (A) (A) (A) (A) (A) (A) (A) (A) (A) (A)
                 (A) (A) (A) (A) (A) (A) (A) (A) (A) (A) (A) (A)
                 (A) (A) (A) (A) (A) (A) (A) (A) (A) (A) (A) (A)
                 (A) (A) (A) (A) (A) (A) (A) (A) (A) (A) (A) (A)
                 (A) (A) (A) (A) (A) (A) (A) (A) (A) (A) (A) (A)
                 (A) (A) (A) (A) (A) (A) (A) (A) (A) (A) (A) (A)
                 (A) (A) (A) (A) (A) (A) (A) (A) (A) (A) (A) (A)
                 (A) (A) (A) (A) (A) (A) (A) (A) (A) (A) (A) (A)
                 (A) (A) (A) (A) (A) (A) (A) (A) (A) (A) (A) (A)
                 (A) (A) (A) (A) (A) (A) (A) (A) (A) (A) (A) (A)
                 (A) (A) (A) (A) (A) (A) (A) (A) (A) (A) (A) (A)
                 (A) (A) (A) (A) (A) (A) (A) (A) (A) (A) (A) (A)
                 (A) (A) (A) (A) (A) (A)
   600 initial guesses have been made.
 Convergence on wavefunction:    0.001000000000000
 Iteration     1 Dimension   600 NMult     0 NNew    600
 CISAX will form   224 AO SS matrices at one time.
 New state      2 was old state      5
 New state      3 was old state      2
 New state      5 was old state      3
 New state      6 was old state      7
 New state      7 was old state     12
 New state      8 was old state      6
 New state      9 was old state      8
 New state     10 was old state      9
 New state     11 was old state     15
 New state     12 was old state     13
 New state     13 was old state     11
 New state     14 was old state     18
 New state     15 was old state     20
 New state     16 was old state     14
 New state     17 was old state     10
 New state     18 was old state     19
 New state     19 was old state     24
 New state     20 was old state     17
 New state     21 was old state     31
 New state     22 was old state     16
 New state     23 was old state     27
 New state     24 was old state     34
 New state     25 was old state     22
 New state     26 was old state     40
 New state     27 was old state     30
 New state     28 was old state     33
 New state     29 was old state     56
 New state     30 was old state     26
 New state     31 was old state     35
 New state     32 was old state     23
 New state     33 was old state     21
 New state     34 was old state     61
 New state     35 was old state     44
 New state     36 was old state     28
 New state     37 was old state     25
 New state     38 was old state     36
 New state     39 was old state     29
 New state     40 was old state     42
 New state     41 was old state     43
 New state     42 was old state     41
 New state     43 was old state     65
 New state     44 was old state     32
 New state     45 was old state     38
 New state     46 was old state     54
 New state     47 was old state     46
 New state     48 was old state     86
 New state     49 was old state     37
 New state     50 was old state    116
 New state     51 was old state     47
 New state     52 was old state     62
 New state     53 was old state     45
 New state     54 was old state     52
 New state     55 was old state     50
 New state     56 was old state     51
 New state     57 was old state     69
 New state     58 was old state     39
 New state     59 was old state     48
 New state     60 was old state     70
 New state     61 was old state     53
 New state     62 was old state     49
 New state     63 was old state     71
 New state     65 was old state     58
 New state     66 was old state     60
 New state     67 was old state     81
 New state     68 was old state     73
 New state     69 was old state    147
 New state     70 was old state     57
 New state     71 was old state     59
 New state     72 was old state    135
 New state     73 was old state     78
 New state     74 was old state    146
 New state     75 was old state    113
 New state     76 was old state     87
 New state     77 was old state     55
 New state     78 was old state     68
 New state     79 was old state     84
 New state     80 was old state     79
 New state     81 was old state     77
 New state     82 was old state     67
 New state     83 was old state     91
 New state     84 was old state     80
 New state     85 was old state     82
 New state     86 was old state     83
 New state     87 was old state     75
 New state     88 was old state     96
 New state     89 was old state     92
 New state     90 was old state    103
 New state     91 was old state     99
 New state     92 was old state    123
 New state     93 was old state     63
 New state     94 was old state    110
 New state     95 was old state    136
 New state     96 was old state    157
 New state     97 was old state     85
 New state     98 was old state    188
 New state     99 was old state     95
 New state    100 was old state     93
 New state    101 was old state    107
 New state    102 was old state    114
 New state    103 was old state    104
 New state    104 was old state     66
 New state    105 was old state     72
 New state    106 was old state    112
 New state    107 was old state    148
 New state    108 was old state    134
 New state    109 was old state    106
 New state    110 was old state    121
 New state    111 was old state     94
 New state    112 was old state    172
 New state    113 was old state    126
 New state    114 was old state     97
 New state    116 was old state    141
 New state    117 was old state    125
 New state    119 was old state    109
 New state    120 was old state    142
 New state    121 was old state    127
 New state    122 was old state    130
 New state    123 was old state    111
 New state    124 was old state    102
 New state    125 was old state     98
 New state    126 was old state    124
 New state    127 was old state    149
 New state    128 was old state     89
 New state    129 was old state    137
 New state    130 was old state    206
 New state    131 was old state    119
 New state    132 was old state    122
 New state    133 was old state     76
 New state    134 was old state    167
 New state    135 was old state    139
 New state    136 was old state    144
 New state    137 was old state    164
 New state    139 was old state    120
 New state    140 was old state    151
 New state    141 was old state    190
 New state    142 was old state    117
 New state    143 was old state    140
 New state    144 was old state    143
 New state    145 was old state    150
 New state    146 was old state    162
 New state    147 was old state    153
 New state    148 was old state    158
 New state    149 was old state    176
 New state    150 was old state    184
 Iteration     2 Dimension   900 NMult   600 NNew    300
 New state      7 was old state      8
 New state      8 was old state      7
 New state     14 was old state     16
 New state     15 was old state     17
 New state     16 was old state     18
 New state     17 was old state     14
 New state     18 was old state     19
 New state     19 was old state     15
 New state     21 was old state     22
 New state     22 was old state     21
 New state     24 was old state     25
 New state     25 was old state     24
 New state     26 was old state     32
 New state     27 was old state     26
 New state     28 was old state     36
 New state     29 was old state     27
 New state     30 was old state     28
 New state     31 was old state     29
 New state     32 was old state     31
 New state     33 was old state     37
 New state     34 was old state     30
 New state     35 was old state     34
 New state     36 was old state     33
 New state     37 was old state     35
 New state     39 was old state     41
 New state     40 was old state     39
 New state     41 was old state     40
 New state     42 was old state     43
 New state     43 was old state     42
 New state     45 was old state     46
 New state     46 was old state     47
 New state     47 was old state     45
 New state     48 was old state     51
 New state     49 was old state     48
 New state     51 was old state     49
 New state     52 was old state     56
 New state     53 was old state     52
 New state     54 was old state     58
 New state     56 was old state     54
 New state     57 was old state     53
 New state     58 was old state     65
 New state     59 was old state     60
 New state     60 was old state     61
 New state     61 was old state     59
 New state     63 was old state     66
 New state     65 was old state     63
 New state     66 was old state     72
 New state     67 was old state     69
 New state     68 was old state     71
 New state     69 was old state     67
 New state     70 was old state     68
 New state     71 was old state     73
 New state     72 was old state     77
 New state     73 was old state     74
 New state     74 was old state     75
 New state     75 was old state     81
 New state     76 was old state     70
 New state     77 was old state     80
 New state     78 was old state     76
 New state     79 was old state     78
 New state     80 was old state     83
 New state     81 was old state     96
 New state     82 was old state     79
 New state     83 was old state     86
 New state     84 was old state     82
 New state     86 was old state     84
 No map to state     87
 New state     89 was old state     87
 New state     90 was old state     89
 New state     91 was old state     93
 New state     92 was old state     94
 New state     93 was old state     92
 New state     94 was old state     91
 New state     95 was old state     90
 New state     96 was old state     97
 New state     97 was old state     95
 New state     98 was old state     99
 New state     99 was old state    101
 New state    100 was old state    102
 New state    101 was old state     98
 New state    102 was old state    100
 New state    103 was old state    113
 New state    104 was old state    105
 New state    105 was old state    103
 New state    106 was old state    107
 New state    107 was old state    109
 New state    108 was old state    106
 New state    109 was old state    104
 New state    110 was old state    108
 New state    111 was old state    118
 New state    112 was old state    110
 New state    113 was old state    112
 New state    114 was old state    111
 New state    115 was old state    123
 New state    116 was old state    114
 New state    117 was old state    115
 New state    118 was old state    116
 New state    119 was old state    117
 New state    120 was old state    121
 New state    121 was old state    120
 New state    122 was old state    119
 New state    123 was old state    124
 New state    124 was old state    122
 New state    125 was old state    126
 New state    126 was old state    125
 New state    128 was old state    132
 New state    130 was old state    128
 New state    131 was old state    130
 New state    132 was old state    134
 New state    133 was old state    136
 New state    134 was old state    135
 New state    135 was old state    145
 New state    136 was old state    131
 New state    137 was old state    133
 New state    138 was old state    137
 New state    139 was old state    138
 New state    140 was old state    142
 New state    141 was old state    139
 New state    142 was old state    140
 New state    143 was old state    144
 New state    144 was old state    141
 New state    145 was old state    147
 New state    146 was old state    150
 New state    147 was old state    148
 New state    148 was old state    143
 New state    150 was old state    146
 Iteration     3 Dimension  1200 NMult   900 NNew    300
 New state     56 was old state     57
 New state     57 was old state     56
 New state     76 was old state     77
 New state     77 was old state     76
 New state     96 was old state     97
 New state     97 was old state     96
 New state    105 was old state    106
 New state    106 was old state    105
 New state    130 was old state    131
 New state    131 was old state    130
 New state    144 was old state    145
 New state    145 was old state    144
 Iteration     4 Dimension  1494 NMult  1200 NNew    294
 Iteration     5 Dimension  1584 NMult  1494 NNew     90
 Iteration     6 Dimension  1590 NMult  1584 NNew      6
 ***********************************************************************
 Excited states from <AA,BB:AA,BB> singles matrix:
 ***********************************************************************
 
 Ground to excited state transition densities written to RWF  633
 Ground to excited state transition electric dipole moments (Au):
       state          X           Y           Z        Dip. S.      Osc.
         1         3.9067     -0.0000      0.0272     15.2631      1.2323
         2        -0.0768      0.0000     -0.0451      0.0079      0.0008
         3         0.0000     -0.4483     -0.0000      0.2010      0.0229
         4         0.2644      0.0001      0.0056      0.0699      0.0083
         5        -0.0000      0.6019      0.0000      0.3623      0.0445
         6        -0.7634      0.0000     -0.0625      0.5867      0.0739
         7         0.0000     -0.9265      0.0000      0.8584      0.1091
         8        -0.0000     -0.2261      0.0000      0.0511      0.0066
         9         0.0000     -0.7716      0.0000      0.5953      0.0799
        10         1.0546      0.0000      0.0410      1.1138      0.1531
        11         0.3387      0.0001     -0.0008      0.1147      0.0164
        12        -0.0001      0.0521     -0.0000      0.0027      0.0004
        13        -2.1197      0.0000     -0.0138      4.4933      0.6571
        14         0.0000      1.4618     -0.0001      2.1369      0.3201
        15        -0.5207     -0.0000      0.0394      0.2727      0.0417
        16         0.0000      0.2362     -0.0001      0.0558      0.0086
        17        -0.5704      0.1099      0.0865      0.3450      0.0539
        18        -0.2186     -0.2870      0.0329      0.1313      0.0205
        19         0.0009     -0.0133      0.0000      0.0002      0.0000
        20         0.7207     -0.0001      0.2077      0.5626      0.0890
        21        -0.0001      0.4525      0.0000      0.2047      0.0334
        22         0.2384      0.0000      0.1880      0.0922      0.0151
        23        -0.1588     -0.0002     -0.0123      0.0254      0.0042
        24         2.1243      0.0001      0.0814      4.5192      0.7551
        25         0.0020      0.0000      0.0665      0.0044      0.0008
        26         0.0002     -0.5262      0.0000      0.2769      0.0473
        27         0.0549      0.0001     -0.0361      0.0043      0.0008
        28         0.2940     -0.0001      0.0186      0.0868      0.0154
        29        -0.0001     -0.0576     -0.0000      0.0033      0.0006
        30        -0.2321      0.0005      0.1172      0.0676      0.0120
        31        -0.0011     -0.0941      0.0005      0.0089      0.0016
        32         0.1204     -0.0001      0.0123      0.0147      0.0026
        33        -0.0000      0.9733     -0.0000      0.9472      0.1708
        34        -0.0002      0.2156     -0.0000      0.0465      0.0084
        35         0.0000      0.2440     -0.0000      0.0595      0.0108
        36         0.5279      0.0001      0.0073      0.2787      0.0507
        37         0.0000     -0.1156      0.0000      0.0134      0.0025
        38         0.0003     -0.1661     -0.0002      0.0276      0.0052
        39        -0.1734     -0.0003      0.1710      0.0593      0.0111
        40        -0.1478     -0.0000     -0.1028      0.0324      0.0061
        41        -0.0004     -0.0328     -0.0003      0.0011      0.0002
        42        -0.1398      0.0004     -0.1172      0.0333      0.0063
        43         0.0002     -0.0433      0.0000      0.0019      0.0004
        44         0.0000      0.6457      0.0000      0.4169      0.0793
        45         0.2232      0.0000     -0.0568      0.0530      0.0101
        46        -0.0008     -0.1714      0.0000      0.0294      0.0056
        47         0.9798     -0.0003     -0.0229      0.9606      0.1844
        48        -0.5031     -0.0000     -0.0388      0.2546      0.0490
        49        -0.0003      0.1550     -0.0001      0.0240      0.0046
        50         0.0565      0.0008      0.0246      0.0038      0.0007
        51        -0.0001     -0.7611      0.0000      0.5793      0.1124
        52         0.0001      0.7634      0.0000      0.5828      0.1137
        53        -0.0001      0.0315     -0.0000      0.0010      0.0002
        54         0.0002      0.7539     -0.0001      0.5684      0.1119
        55         0.1577     -0.0007     -0.1745      0.0553      0.0109
        56        -0.0005      0.2819      0.0535      0.0823      0.0163
        57         0.0043     -0.0416      0.3635      0.1339      0.0265
        58         0.7757      0.0004      0.0536      0.6047      0.1198
        59        -0.3347     -0.0001      0.1450      0.1330      0.0266
        60        -0.0004     -0.3391      0.0000      0.1150      0.0231
        61         0.4919     -0.0002      0.0367      0.2433      0.0490
        62        -0.5459     -0.0000      0.0260      0.2987      0.0602
        63         0.5010     -0.0000      0.0674      0.2556      0.0517
        64         0.0001      0.2218      0.0001      0.0492      0.0100
        65         0.0001      0.0590     -0.0000      0.0035      0.0007
        66         0.0002      0.0861      0.0000      0.0074      0.0015
        67         0.0407     -0.0002     -0.1275      0.0179      0.0037
        68        -0.3414      0.0002     -0.0186      0.1169      0.0239
        69         0.0431     -0.0000      0.0388      0.0034      0.0007
        70         0.0000     -0.3704      0.0001      0.1372      0.0282
        71         0.0338      0.0005     -0.3055      0.0944      0.0195
        72        -0.0000      0.8288      0.0002      0.6870      0.1418
        73        -0.0395      0.0012      0.0602      0.0052      0.0011
        74        -0.0000     -0.3707      0.0001      0.1375      0.0284
        75        -0.0395     -0.0005      0.0503      0.0041      0.0008
        76         0.2140      0.0003      0.0475      0.0480      0.0100
        77        -0.0004      0.1380     -0.0001      0.0190      0.0040
        78        -0.0001     -0.1672     -0.0000      0.0280      0.0059
        79        -0.0896     -0.0018     -0.0582      0.0114      0.0024
        80         0.0010     -0.1709      0.0006      0.0292      0.0062
        81         0.5411     -0.0000     -0.0316      0.2938      0.0624
        82        -0.0002     -0.1139     -0.0000      0.0130      0.0028
        83         0.1973     -0.0001     -0.1155      0.0523      0.0112
        84         0.0000     -0.0441      0.0000      0.0019      0.0004
        85        -0.0001      0.2164      0.0000      0.0468      0.0101
        86         0.0432      0.0000     -0.0113      0.0020      0.0004
        87         0.0154      0.0001      0.1455      0.0214      0.0046
        88        -0.0000     -0.0107      0.0000      0.0001      0.0000
        89         0.0000      0.0515     -0.0000      0.0027      0.0006
        90        -0.0000     -0.1196      0.0000      0.0143      0.0031
        91        -0.1435      0.0000      0.0944      0.0295      0.0065
        92         0.0000      0.8486     -0.0001      0.7201      0.1589
        93        -0.1367     -0.0001     -0.0907      0.0269      0.0059
        94        -0.0002      0.0729     -0.0001      0.0053      0.0012
        95        -0.0527     -0.0005     -0.0335      0.0039      0.0009
        96        -0.0009     -0.3826      0.0003      0.1464      0.0325
        97         0.0560     -0.0060     -0.0235      0.0037      0.0008
        98         0.0000     -0.2441     -0.0000      0.0596      0.0133
        99         0.0171     -0.0001      0.0946      0.0092      0.0021
       100         0.0000     -0.3387      0.0000      0.1147      0.0257
       101         0.0101      0.0001      0.0564      0.0033      0.0007
       102        -0.0000     -0.0382     -0.0000      0.0015      0.0003
       103        -0.0001      0.2557      0.0000      0.0654      0.0148
       104         0.1816      0.0001     -0.0419      0.0347      0.0079
       105        -0.0002      0.3222      0.0003      0.1038      0.0235
       106        -0.0326     -0.0015      0.0811      0.0076      0.0017
       107         0.1049      0.0001      0.0367      0.0124      0.0028
       108        -0.0628     -0.0004     -0.1181      0.0179      0.0041
       109         0.0001     -0.2603      0.0001      0.0677      0.0154
       110         0.0536      0.0000     -0.1486      0.0249      0.0057
       111        -0.0000      0.2746      0.0000      0.0754      0.0173
       112        -0.0000      0.2979      0.0000      0.0887      0.0203
       113         0.0000      0.0980      0.0000      0.0096      0.0022
       114         0.0059     -0.0002      0.1126      0.0127      0.0029
       115         0.0001      0.2156      0.0001      0.0465      0.0107
       116        -0.0220      0.0002      0.1201      0.0149      0.0034
       117        -0.0773      0.0000     -0.0918      0.0144      0.0033
       118         0.0000     -0.1643      0.0001      0.0270      0.0062
       119         0.0497     -0.0000     -0.0480      0.0048      0.0011
       120        -0.0000     -0.1286      0.0001      0.0165      0.0038
       121         0.1224     -0.0001      0.2085      0.0585      0.0136
       122        -0.0000     -0.1468      0.0000      0.0216      0.0050
       123        -0.0000     -0.1922     -0.0000      0.0369      0.0086
       124        -0.0611     -0.0001      0.0905      0.0119      0.0028
       125         0.0001     -0.0344     -0.0003      0.0012      0.0003
       126         0.1736      0.0000     -0.0026      0.0301      0.0071
       127         0.2449      0.0001     -0.0134      0.0602      0.0141
       128        -0.0003      0.1665     -0.0003      0.0277      0.0065
       129         0.0690      0.0004      0.1237      0.0201      0.0047
       130         0.0401      0.0050      0.0783      0.0078      0.0018
       131        -0.0007      0.3119     -0.0013      0.0973      0.0229
       132         0.0816      0.0002      0.0516      0.0093      0.0022
       133        -0.0000      0.4389     -0.0000      0.1926      0.0456
       134         0.0469      0.0005      0.1202      0.0166      0.0039
       135        -0.0002      0.1014     -0.0003      0.0103      0.0024
       136         0.0000      0.0345      0.0000      0.0012      0.0003
       137        -0.0001     -0.0709      0.0000      0.0050      0.0012
       138         0.1814     -0.0002     -0.1167      0.0465      0.0111
       139         0.0004      0.0293     -0.0002      0.0009      0.0002
       140        -0.0928      0.0001     -0.1328      0.0263      0.0063
       141        -0.2820      0.0002      0.0651      0.0838      0.0200
       142         0.0004      0.1598     -0.0002      0.0255      0.0061
       143        -0.1228     -0.0001     -0.1856      0.0495      0.0118
       144         0.1521     -0.0000      0.0582      0.0265      0.0063
       145         0.0001     -0.2596      0.0000      0.0674      0.0161
       146         0.0000      0.2629      0.0000      0.0691      0.0166
       147        -0.0000     -0.0626      0.0000      0.0039      0.0009
       148         0.1547     -0.0000     -0.1196      0.0382      0.0092
       149         0.0738      0.0002     -0.0575      0.0088      0.0021
       150         0.0002     -0.0124     -0.0003      0.0002      0.0000
 Ground to excited state transition velocity dipole moments (Au):
       state          X           Y           Z        Dip. S.      Osc.
         1        -0.4883      0.0000     -0.0040      0.2385      1.3128
         2         0.0133     -0.0000      0.0072      0.0002      0.0010
         3         0.0000      0.0790      0.0000      0.0062      0.0244
         4        -0.0477     -0.0000     -0.0010      0.0023      0.0085
         5         0.0000     -0.1188     -0.0000      0.0141      0.0510
         6         0.1513     -0.0000      0.0118      0.0230      0.0813
         7        -0.0000      0.1854     -0.0000      0.0344      0.1203
         8         0.0000      0.0460     -0.0000      0.0021      0.0073
         9         0.0000      0.1643     -0.0000      0.0270      0.0893
        10        -0.2268     -0.0000     -0.0092      0.0515      0.1665
        11        -0.0759     -0.0000      0.0028      0.0058      0.0179
        12         0.0000     -0.0106      0.0000      0.0001      0.0004
        13         0.4842     -0.0000      0.0031      0.2344      0.7124
        14        -0.0000     -0.3427      0.0000      0.1174      0.3484
        15         0.1229      0.0000     -0.0097      0.0152      0.0441
        16        -0.0000     -0.0579      0.0000      0.0034      0.0097
        17         0.1362     -0.0274     -0.0221      0.0198      0.0564
        18         0.0522      0.0717     -0.0084      0.0079      0.0226
        19        -0.0002      0.0029     -0.0000      0.0000      0.0000
        20        -0.1768      0.0000     -0.0517      0.0339      0.0953
        21         0.0000     -0.1143     -0.0000      0.0131      0.0355
        22        -0.0622     -0.0000     -0.0457      0.0060      0.0161
        23         0.0410      0.0000      0.0051      0.0017      0.0046
        24        -0.5491     -0.0000     -0.0215      0.3020      0.8034
        25        -0.0003     -0.0000     -0.0240      0.0006      0.0015
        26        -0.0001      0.1384     -0.0000      0.0192      0.0499
        27        -0.0151     -0.0000      0.0152      0.0005      0.0012
        28        -0.0834      0.0000     -0.0032      0.0070      0.0175
        29         0.0000      0.0152      0.0000      0.0002      0.0006
        30         0.0651     -0.0001     -0.0295      0.0051      0.0128
        31         0.0003      0.0266     -0.0001      0.0007      0.0018
        32        -0.0348      0.0000     -0.0036      0.0012      0.0030
        33        -0.0000     -0.2719      0.0000      0.0739      0.1822
        34         0.0000     -0.0620      0.0000      0.0038      0.0094
        35        -0.0000     -0.0696      0.0000      0.0048      0.0119
        36        -0.1546     -0.0000     -0.0013      0.0239      0.0583
        37        -0.0000      0.0324     -0.0000      0.0011      0.0026
        38        -0.0001      0.0489      0.0001      0.0024      0.0057
        39         0.0503      0.0001     -0.0484      0.0049      0.0115
        40         0.0440      0.0000      0.0291      0.0028      0.0066
        41         0.0001      0.0098      0.0001      0.0001      0.0002
        42         0.0419     -0.0001      0.0317      0.0028      0.0065
        43        -0.0000      0.0106     -0.0000      0.0001      0.0003
        44        -0.0000     -0.1891     -0.0000      0.0358      0.0836
        45        -0.0702     -0.0000      0.0148      0.0051      0.0120
        46         0.0003      0.0492      0.0000      0.0024      0.0056
        47        -0.2984      0.0001      0.0060      0.0891      0.2063
        48         0.1538     -0.0000      0.0098      0.0237      0.0549
        49         0.0001     -0.0447      0.0000      0.0020      0.0046
        50        -0.0174     -0.0002     -0.0085      0.0004      0.0009
        51         0.0000      0.2262     -0.0000      0.0511      0.1171
        52        -0.0001     -0.2310     -0.0000      0.0534      0.1215
        53         0.0000     -0.0108      0.0000      0.0001      0.0003
        54        -0.0001     -0.2302      0.0000      0.0530      0.1197
        55        -0.0486      0.0002      0.0447      0.0044      0.0098
        56         0.0004     -0.0847     -0.0149      0.0074      0.0166
        57         0.0004      0.0125     -0.1013      0.0104      0.0234
        58        -0.2469     -0.0001     -0.0133      0.0611      0.1371
        59         0.1067      0.0000     -0.0421      0.0132      0.0293
        60         0.0001      0.1037     -0.0000      0.0108      0.0238
        61        -0.1570      0.0001     -0.0079      0.0247      0.0545
        62         0.1749      0.0000     -0.0066      0.0306      0.0675
        63        -0.1627      0.0000     -0.0231      0.0270      0.0593
        64        -0.0000     -0.0693     -0.0000      0.0048      0.0105
        65        -0.0000     -0.0180      0.0000      0.0003      0.0007
        66        -0.0001     -0.0266     -0.0000      0.0007      0.0015
        67        -0.0112      0.0000      0.0359      0.0014      0.0031
        68         0.1081     -0.0001      0.0038      0.0117      0.0254
        69        -0.0138      0.0000     -0.0128      0.0004      0.0008
        70        -0.0000      0.1158     -0.0000      0.0134      0.0289
        71        -0.0075     -0.0001      0.0920      0.0085      0.0183
        72         0.0000     -0.2604     -0.0001      0.0678      0.1460
        73         0.0132     -0.0004     -0.0210      0.0006      0.0013
        74         0.0000      0.1154     -0.0000      0.0133      0.0286
        75         0.0134      0.0002     -0.0186      0.0005      0.0011
        76        -0.0695     -0.0001     -0.0164      0.0051      0.0109
        77         0.0001     -0.0438      0.0000      0.0019      0.0041
        78         0.0000      0.0549      0.0000      0.0030      0.0064
        79         0.0291      0.0006      0.0079      0.0009      0.0019
        80        -0.0003      0.0563     -0.0001      0.0032      0.0067
        81        -0.1851      0.0000      0.0109      0.0344      0.0720
        82         0.0001      0.0368      0.0000      0.0014      0.0028
        83        -0.0648      0.0000      0.0351      0.0054      0.0113
        84        -0.0000      0.0164     -0.0000      0.0003      0.0006
        85         0.0000     -0.0733     -0.0000      0.0054      0.0111
        86        -0.0149     -0.0000      0.0055      0.0003      0.0005
        87        -0.0063     -0.0000     -0.0450      0.0021      0.0042
        88         0.0000      0.0046     -0.0000      0.0000      0.0000
        89        -0.0000     -0.0204      0.0000      0.0004      0.0008
        90         0.0000      0.0422     -0.0000      0.0018      0.0036
        91         0.0504     -0.0000     -0.0331      0.0036      0.0074
        92        -0.0000     -0.2946      0.0000      0.0868      0.1748
        93         0.0468      0.0000      0.0313      0.0032      0.0064
        94         0.0001     -0.0246      0.0000      0.0006      0.0012
        95         0.0187      0.0002      0.0103      0.0005      0.0009
        96         0.0003      0.1349     -0.0001      0.0182      0.0364
        97        -0.0194      0.0021      0.0078      0.0004      0.0009
        98        -0.0000      0.0850      0.0000      0.0072      0.0144
        99        -0.0065      0.0000     -0.0294      0.0009      0.0018
       100         0.0000      0.1194     -0.0000      0.0143      0.0283
       101        -0.0014     -0.0000     -0.0180      0.0003      0.0006
       102         0.0000      0.0130      0.0000      0.0002      0.0003
       103         0.0000     -0.0857     -0.0000      0.0073      0.0145
       104        -0.0641     -0.0000      0.0067      0.0042      0.0082
       105         0.0001     -0.1177     -0.0001      0.0139      0.0271
       106         0.0115      0.0005     -0.0262      0.0008      0.0016
       107        -0.0391     -0.0000     -0.0058      0.0016      0.0031
       108         0.0203      0.0001      0.0382      0.0019      0.0037
       109        -0.0000      0.0915     -0.0000      0.0084      0.0163
       110        -0.0186     -0.0000      0.0522      0.0031      0.0060
       111        -0.0000     -0.1026     -0.0000      0.0105      0.0205
       112         0.0000     -0.1060     -0.0000      0.0112      0.0218
       113        -0.0000     -0.0364     -0.0000      0.0013      0.0026
       114        -0.0001      0.0001     -0.0401      0.0016      0.0031
       115        -0.0000     -0.0750     -0.0000      0.0056      0.0109
       116         0.0100     -0.0001     -0.0372      0.0015      0.0029
       117         0.0290     -0.0000      0.0299      0.0017      0.0033
       118        -0.0000      0.0590     -0.0000      0.0035      0.0067
       119        -0.0149      0.0000      0.0146      0.0004      0.0008
       120         0.0000      0.0436     -0.0000      0.0019      0.0036
       121        -0.0400      0.0000     -0.0678      0.0062      0.0119
       122         0.0000      0.0503     -0.0000      0.0025      0.0048
       123         0.0000      0.0655     -0.0000      0.0043      0.0082
       124         0.0204      0.0000     -0.0271      0.0011      0.0022
       125        -0.0000      0.0110      0.0001      0.0001      0.0002
       126        -0.0642     -0.0000      0.0067      0.0042      0.0079
       127        -0.0920     -0.0000     -0.0014      0.0085      0.0160
       128         0.0001     -0.0586      0.0001      0.0034      0.0065
       129        -0.0286     -0.0002     -0.0435      0.0027      0.0051
       130        -0.0125     -0.0018     -0.0249      0.0008      0.0015
       131         0.0002     -0.1116      0.0004      0.0125      0.0235
       132        -0.0315     -0.0001     -0.0197      0.0014      0.0026
       133        -0.0000     -0.1633      0.0000      0.0267      0.0501
       134        -0.0158     -0.0002     -0.0431      0.0021      0.0040
       135         0.0001     -0.0363      0.0001      0.0013      0.0025
       136        -0.0000     -0.0156     -0.0000      0.0002      0.0005
       137         0.0000      0.0255      0.0000      0.0007      0.0012
       138        -0.0666      0.0001      0.0426      0.0063      0.0117
       139        -0.0002     -0.0125      0.0001      0.0002      0.0003
       140         0.0346     -0.0000      0.0460      0.0033      0.0062
       141         0.1038     -0.0001     -0.0223      0.0113      0.0210
       142        -0.0001     -0.0607      0.0001      0.0037      0.0068
       143         0.0430      0.0000      0.0627      0.0058      0.0107
       144        -0.0557      0.0000     -0.0192      0.0035      0.0065
       145        -0.0001      0.0974     -0.0000      0.0095      0.0176
       146        -0.0000     -0.0953     -0.0000      0.0091      0.0168
       147         0.0000      0.0231     -0.0000      0.0005      0.0010
       148        -0.0577      0.0000      0.0413      0.0050      0.0093
       149        -0.0251     -0.0001      0.0208      0.0011      0.0020
       150        -0.0001      0.0038      0.0001      0.0000      0.0000
 Ground to excited state transition magnetic dipole moments (Au):
       state          X           Y           Z
         1         0.0340      0.0001      0.7373
         2         0.2821      0.0000      0.2098
         3         0.0000      0.0578      0.0000
         4         0.0077      0.0000      0.5350
         5         0.0000      0.0841      0.0000
         6        -0.0654      0.0000      1.6645
         7         0.0000     -0.2531      0.0001
         8         0.0000      0.4453      0.0001
         9        -0.0000     -0.0472     -0.0001
        10         0.1589      0.0000     -2.1956
        11        -0.3571     -0.0000     -0.0700
        12        -0.0000      0.2559      0.0002
        13         0.0323     -0.0001     -1.5984
        14        -0.0000      0.0890      0.0001
        15         0.0755     -0.0001     -2.9485
        16         0.0001      0.1677      0.0000
        17        -0.1828      0.0353      0.4301
        18        -0.0696     -0.0923      0.1647
        19        -0.0000     -0.1413     -0.0005
        20        -0.3278      0.0000     -0.5396
        21         0.0000     -0.0441      0.0001
        22        -0.2465     -0.0000     -0.4486
        23         0.0035      0.0000     -0.0221
        24         0.1136     -0.0000     -3.5463
        25         0.8058      0.0000     -0.1295
        26        -0.0000     -0.1229     -0.0002
        27        -0.0190      0.0000     -0.3627
        28        -0.0445      0.0000      1.6420
        29         0.0000     -0.1010     -0.0003
        30        -0.0169     -0.0009     -0.8466
        31        -0.0001      0.2178     -0.0036
        32         0.2012      0.0000      0.0678
        33        -0.0000      0.0573      0.0001
        34        -0.0000      0.1760     -0.0003
        35         0.0000     -0.1385      0.0001
        36        -0.1184      0.0001      1.0578
        37         0.0000     -0.5159     -0.0001
        38        -0.0012      0.2975     -0.0002
        39         0.8123      0.0005      0.1069
        40        -0.2385      0.0014      0.1730
        41        -0.0005     -0.4720      0.0005
        42        -0.2697     -0.0000      0.1885
        43         0.0001      0.0959      0.0001
        44         0.0000     -0.1006     -0.0001
        45         0.1108      0.0000     -0.0604
        46         0.0001     -0.2876     -0.0007
        47        -0.1786     -0.0003      0.8407
        48        -0.3318     -0.0004     -0.1841
        49        -0.0003      0.4284     -0.0001
        50        -0.6668      0.0003      0.5408
        51        -0.0010     -0.2114      0.0008
        52        -0.0000     -0.3374      0.0000
        53        -0.0001     -0.0353      0.0002
        54        -0.0001      0.3160     -0.0005
        55         0.5516      0.0009     -0.2561
        56         0.0276     -0.5955      0.0289
        57         0.1822      0.0883      0.1645
        58         0.1245     -0.0012     -2.5666
        59         0.2274      0.0001      1.4267
        60         0.0002      0.0832      0.0007
        61        -0.2042      0.0002     -0.9439
        62        -0.2059      0.0000      1.9412
        63        -0.0173     -0.0000     -0.2593
        64         0.0001      0.0740     -0.0003
        65         0.0000      0.5011     -0.0001
        66         0.0001      0.1216     -0.0017
        67         0.3104     -0.0000     -0.5244
        68        -0.0415      0.0002      2.3996
        69        -0.0973      0.0009      0.4123
        70        -0.0002     -0.7226      0.0007
        71         0.3607     -0.0000      0.2573
        72         0.0001      0.0755     -0.0016
        73        -0.2754      0.0001      0.4431
        74         0.0001      0.5191     -0.0008
        75        -0.1840      0.0001     -0.6925
        76        -0.4390      0.0008      1.2824
        77         0.0010      0.2412     -0.0018
        78         0.0000     -0.2154     -0.0001
        79        -0.3193      0.0001     -0.0092
        80         0.0034      0.0031      0.0000
        81         0.0491      0.0002     -0.5425
        82         0.0001      0.4465      0.0002
        83         0.4302     -0.0003     -0.1650
        84         0.0000     -0.6307      0.0001
        85        -0.0002     -1.1806      0.0002
        86         0.2969     -0.0000      0.0885
        87         0.2389      0.0000      0.1039
        88         0.0000      0.7146     -0.0000
        89         0.0001     -0.3996     -0.0001
        90         0.0003     -0.1263     -0.0000
        91         0.7017      0.0001      0.3157
        92         0.0000      0.0758     -0.0002
        93        -0.1269      0.0001     -0.1849
        94         0.0017     -0.4111     -0.0007
        95         0.5412      0.0015     -0.2076
        96         0.0059      0.6605      0.0046
        97        -0.3847      0.0105     -0.3022
        98        -0.0001     -0.5860     -0.0000
        99         0.3019     -0.0001      0.1799
       100        -0.0000      0.3816      0.0000
       101         0.3195     -0.0001      0.1481
       102         0.0003      0.4082      0.0001
       103        -0.0001      0.1766      0.0000
       104         0.6033      0.0000      0.0406
       105         0.0021      0.4845     -0.0010
       106         0.5493     -0.0021     -0.2463
       107         0.2125      0.0001     -0.1524
       108        -0.0710     -0.0002      0.1864
       109         0.0000     -0.0412     -0.0002
       110        -0.2567     -0.0002     -0.1001
       111         0.0002     -0.2750     -0.0000
       112         0.0000      0.0975     -0.0002
       113        -0.0002      0.2747     -0.0002
       114         0.4250     -0.0001     -0.5019
       115         0.0007      0.1617      0.0008
       116         0.0471     -0.0001     -0.1250
       117        -0.5795      0.0004     -0.8034
       118         0.0000      0.1663      0.0006
       119        -0.5527      0.0004     -0.2199
       120         0.0007      0.6390      0.0001
       121         0.2946      0.0000      0.3298
       122        -0.0000     -0.3886      0.0002
       123         0.0001      0.2352     -0.0004
       124         0.0961      0.0011      0.4393
       125        -0.0004      0.4191     -0.0010
       126         0.5727     -0.0000     -0.1334
       127        -0.2793     -0.0004      0.0026
       128        -0.0010     -0.4817      0.0014
       129         0.4779     -0.0013     -0.6454
       130         1.3857     -0.0109      0.7604
       131        -0.0224     -0.6702     -0.0125
       132         0.5282      0.0003     -1.0879
       133        -0.0002      0.0789      0.0002
       134        -0.1991      0.0002      0.7341
       135         0.0003     -0.0810     -0.0019
       136         0.0002      0.1612      0.0002
       137        -0.0001     -1.1479      0.0001
       138        -0.5045      0.0017     -0.6462
       139        -0.0013     -0.7254     -0.0015
       140        -0.5705     -0.0001      0.8751
       141        -0.4172      0.0015      0.2799
       142         0.0006      0.6435     -0.0009
       143        -0.1411     -0.0003     -0.2876
       144         0.0902      0.0003      0.4870
       145        -0.0000     -0.3497     -0.0002
       146         0.0001     -1.2505     -0.0001
       147         0.0002     -0.4998      0.0000
       148        -0.4935     -0.0001     -0.0230
       149         0.2314     -0.0078      0.3527
       150         0.0011      1.5543      0.0019
 Ground to excited state transition velocity quadrupole moments (Au):
       state          XX          YY          ZZ          XY          XZ          YZ
         1         0.0000     -0.0000      0.0000      0.4817     -0.0000      0.0350
         2        -0.0001      0.0000      0.0000      0.0060     -0.0000     -0.0447
         3        -0.5257      0.1182      0.0065      0.0000     -0.0261      0.0000
         4        -0.0001      0.0000      0.0000     -0.1732      0.0000      0.0300
         5        -3.2778      0.2310     -0.0033      0.0000     -0.1287      0.0000
         6         0.0001     -0.0000     -0.0000      0.7849     -0.0000     -0.0117
         7        -1.0585     -0.3391     -0.0080      0.0000      0.0029      0.0000
         8         0.0988     -0.0810     -0.0026      0.0000      0.1071     -0.0000
         9         0.2099     -0.0731      0.0043     -0.0001      0.0287      0.0000
        10         0.0000     -0.0000      0.0000     -1.0547     -0.0000      0.0312
        11         0.0001      0.0000     -0.0000      0.2117     -0.0000      0.0530
        12         0.6148      0.0169      0.0041      0.0001     -0.0347      0.0000
        13         0.0000     -0.0000      0.0000     -2.4772      0.0001     -0.0164
        14         7.5479      0.4421     -0.0659      0.0000      0.0995     -0.0000
        15         0.0000      0.0000      0.0000     -2.9128      0.0001     -0.0372
        16        -2.6835      0.9466      0.0022      0.0000     -0.2035      0.0001
        17        -0.0296      0.0812     -0.0038     -0.3376     -0.0405     -0.1278
        18         0.0761     -0.2120      0.0101     -0.1299      0.1059     -0.0486
        19        -0.0776     -0.1004      0.0196      0.0009      0.0118     -0.0000
        20         0.0005     -0.0001     -0.0000      0.9323      0.0000     -0.2459
        21        -0.2698     -0.3202     -0.0009     -0.0000      0.0508      0.0000
[...]
    23  C    0.000000  -0.000000  -0.000000  -0.000046   0.000037  -0.000232
    24  H    0.000001  -0.000002   0.000057   0.000004   0.000001  -0.000002
    25  H   -0.036074   0.005896  -0.003783  -0.000000   0.000000  -0.000000
    26  H    0.426325  -0.037256   0.006961  -0.000000   0.000000  -0.000000
    27  H   -0.035645   0.420335  -0.037111  -0.000000  -0.000000   0.000000
    28  H    0.002086  -0.011938   0.401835   0.000000  -0.000000  -0.000000
    29  H    0.000000  -0.000000   0.000000   0.418533  -0.036074   0.005896
    30  H    0.000000  -0.000000   0.000000  -0.042281   0.426324  -0.037255
    31  H   -0.000000   0.000000   0.000000   0.005288  -0.035644   0.420334
    32  H   -0.000000  -0.000000  -0.000000  -0.000028   0.002085  -0.011936
    33  H    0.000022  -0.000075   0.001336   0.000000  -0.000000   0.000000
    34  H   -0.000378   0.002993  -0.000952  -0.000000   0.000000  -0.000000
    35  H    0.000023  -0.000029  -0.001180   0.000000  -0.000000   0.000000
    36  H   -0.000009   0.000044   0.000530   0.000000   0.000000  -0.000000
    37  H    0.000001   0.000005   0.000264  -0.000000   0.000000   0.000000
    38  H   -0.000000   0.000000  -0.000001  -0.000064   0.000022  -0.000075
    39  H    0.000000  -0.000000   0.000000   0.000435  -0.000378   0.002992
    40  H   -0.000000   0.000000  -0.000000  -0.000080   0.000023  -0.000028
    41  H    0.000000  -0.000000   0.000000   0.000035  -0.000009   0.000044
    42  H    0.000000   0.000000   0.000000  -0.000003   0.000001   0.000005
              19         20         21         22         23         24
     1  C    0.000052  -0.059265  -0.001265   0.004201   0.002949   0.000416
     2  C    0.001173   0.002427  -0.004165   0.002426  -0.004159   0.355563
     3  C    0.001520   0.004216   0.002942  -0.059270  -0.001269   0.000431
     4  N   -0.066601   0.000021   0.000021   0.199000  -0.029482  -0.005651
     5  S    0.000055   0.003237  -0.000089   0.000014  -0.000021   0.002517
     6  C    0.000001   0.012126   0.002388   0.000009   0.000004  -0.000092
     7  C   -0.000000  -0.044021   0.000363  -0.000023   0.000006   0.000497
     8  N   -0.000001   0.199001  -0.029485   0.000022   0.000021  -0.005649
     9  S    0.023876   0.000014  -0.000021   0.003237  -0.000089   0.002517
    10  C    0.040962   0.000009   0.000004   0.012125   0.002385  -0.000091
    11  C    0.310046  -0.000023   0.000006  -0.044020   0.000361   0.000497
    12  C    0.000000   0.000491  -0.000046   0.000000   0.000000   0.000004
    13  C   -0.000000  -0.000290   0.000037  -0.000000   0.000000   0.000001
    14  C    0.000000   0.000913  -0.000232   0.000000  -0.000000  -0.000002
    15  C   -0.000000  -0.006149  -0.009482  -0.000000  -0.000000   0.000057
    16  C   -0.090123   0.000000   0.000000   0.000492  -0.000046   0.000004
    17  C   -0.008621  -0.000000   0.000000  -0.000290   0.000037   0.000001
    18  C    0.457773   0.000000  -0.000000   0.000912  -0.000232  -0.000002
    19  C    5.214982  -0.000000  -0.000000  -0.006150  -0.009480   0.000056
    20  C   -0.000000   5.234982   0.228197  -0.000389   0.000106   0.000741
    21  C   -0.000000   0.228197   5.078429   0.000106   0.000002  -0.005622
    22  C   -0.006150  -0.000389   0.000106   5.235014   0.228180   0.000742
    23  C   -0.009480   0.000106   0.000002   0.228180   5.078453  -0.005622
    24  H    0.000056   0.000741  -0.005622   0.000742  -0.005622   0.411973
    25  H    0.000000   0.000015  -0.000002  -0.000000  -0.000000  -0.000000
    26  H    0.000000  -0.000005   0.000001  -0.000000  -0.000000   0.000000
    27  H    0.000000   0.000034   0.000004   0.000000   0.000000  -0.000000
    28  H   -0.000000   0.001652  -0.002103  -0.000000   0.000000  -0.000001
    29  H   -0.003783  -0.000000  -0.000000   0.000015  -0.000002  -0.000000
    30  H    0.006960  -0.000000  -0.000000  -0.000005   0.000001   0.000000
    31  H   -0.037110   0.000000   0.000000   0.000034   0.000004  -0.000000
    32  H    0.401831  -0.000000   0.000000   0.001653  -0.002105  -0.000001
    33  H   -0.000001   0.410044  -0.042229   0.000301  -0.000032  -0.002496
    34  H    0.000000   0.414013  -0.038036   0.000010  -0.000004   0.000573
    35  H   -0.000000  -0.030645   0.406358  -0.000002   0.000000   0.000251
    36  H    0.000000  -0.037175   0.413609   0.000033   0.000028  -0.001298
    37  H    0.000000  -0.050500   0.424714   0.000017   0.000003   0.000079
    38  H    0.001336   0.000300  -0.000032   0.410062  -0.042236  -0.002499
    39  H   -0.000951   0.000010  -0.000004   0.414006  -0.038033   0.000573
    40  H   -0.001180  -0.000002   0.000000  -0.030638   0.406352   0.000251
    41  H    0.000530   0.000033   0.000028  -0.037190   0.413620  -0.001298
    42  H    0.000264   0.000017   0.000003  -0.050497   0.424710   0.000079
              25         26         27         28         29         30
     1  C    0.000185   0.000011   0.000029  -0.000808   0.000008  -0.000000
     2  C   -0.000012   0.000000  -0.000002   0.000089  -0.000012   0.000000
     3  C    0.000008  -0.000000  -0.000000   0.000010   0.000185   0.000011
     4  N    0.000000   0.000000  -0.000000  -0.000000  -0.000040   0.000024
     5  S   -0.003027  -0.000186   0.000016  -0.000074  -0.000033  -0.000000
     6  C   -0.042537   0.007172  -0.000452   0.003762  -0.000000  -0.000000
     7  C    0.017883  -0.001204   0.007836  -0.028915   0.000000   0.000000
     8  N   -0.000040   0.000024  -0.000110  -0.001852   0.000000   0.000000
     9  S   -0.000033  -0.000000  -0.000000   0.000000  -0.003027  -0.000186
    10  C   -0.000000  -0.000000  -0.000000   0.000000  -0.042538   0.007172
    11  C    0.000000   0.000000   0.000000  -0.000000   0.017883  -0.001204
    12  C    0.418532  -0.042282   0.005288  -0.000028  -0.000000  -0.000000
    13  C   -0.036074   0.426325  -0.035645   0.002086   0.000000   0.000000
    14  C    0.005896  -0.037256   0.420335  -0.011938  -0.000000  -0.000000
    15  C   -0.003783   0.006961  -0.037111   0.401835   0.000000   0.000000
    16  C   -0.000000  -0.000000  -0.000000   0.000000   0.418533  -0.042281
    17  C    0.000000   0.000000  -0.000000  -0.000000  -0.036074   0.426324
    18  C   -0.000000  -0.000000   0.000000  -0.000000   0.005896  -0.037255
    19  C    0.000000   0.000000   0.000000  -0.000000  -0.003783   0.006960
    20  C    0.000015  -0.000005   0.000034   0.001652  -0.000000  -0.000000
    21  C   -0.000002   0.000001   0.000004  -0.002103  -0.000000  -0.000000
    22  C   -0.000000  -0.000000   0.000000  -0.000000   0.000015  -0.000005
    23  C   -0.000000  -0.000000   0.000000   0.000000  -0.000002   0.000001
    24  H   -0.000000   0.000000  -0.000000  -0.000001  -0.000000   0.000000
    25  H    0.449534  -0.003378  -0.000140   0.000015  -0.000000  -0.000000
    26  H   -0.003378   0.456367  -0.003493  -0.000123  -0.000000   0.000000
    27  H   -0.000140  -0.003493   0.454530  -0.003012   0.000000  -0.000000
    28  H    0.000015  -0.000123  -0.003012   0.428368   0.000000   0.000000
    29  H   -0.000000  -0.000000   0.000000   0.000000   0.449534  -0.003378
    30  H   -0.000000   0.000000  -0.000000   0.000000  -0.003378   0.456367
    31  H    0.000000  -0.000000  -0.000000  -0.000000  -0.000140  -0.003493
    32  H    0.000000   0.000000  -0.000000   0.000000   0.000015  -0.000123
    33  H   -0.000001  -0.000000  -0.000000   0.000582   0.000000  -0.000000
    34  H    0.000002  -0.000000  -0.000005  -0.004873  -0.000000   0.000000
    35  H   -0.000001  -0.000000   0.000009   0.000409   0.000000  -0.000000
    36  H    0.000000  -0.000000  -0.000001  -0.000034  -0.000000   0.000000
    37  H    0.000000  -0.000000   0.000000   0.000135   0.000000   0.000000
    38  H    0.000000  -0.000000   0.000000  -0.000000  -0.000001  -0.000000
    39  H   -0.000000   0.000000  -0.000000   0.000000   0.000002  -0.000000
    40  H    0.000000  -0.000000   0.000000  -0.000000  -0.000001  -0.000000
    41  H   -0.000000   0.000000  -0.000000   0.000000   0.000000  -0.000000
    42  H    0.000000   0.000000   0.000000  -0.000000   0.000000  -0.000000
              31         32         33         34         35         36
     1  C   -0.000000   0.000010  -0.037132   0.011071  -0.002144   0.000903
     2  C   -0.000002   0.000089   0.016978  -0.000846   0.000588   0.000176
     3  C    0.000029  -0.000808   0.003929   0.000200  -0.000113   0.002855
     4  N   -0.000110  -0.001852  -0.000140  -0.000001  -0.000001  -0.000008
     5  S   -0.000000   0.000000  -0.000143  -0.000383  -0.000029  -0.000159
     6  C   -0.000000   0.000000   0.000053  -0.001511   0.001575  -0.000278
     7  C    0.000000  -0.000000   0.010570  -0.021373   0.003988  -0.002673
     8  N   -0.000000  -0.000000  -0.021693  -0.017911  -0.002379  -0.000028
     9  S    0.000016  -0.000074  -0.000021  -0.000001   0.000001  -0.000013
    10  C   -0.000452   0.003762   0.000012  -0.000000  -0.000000   0.000005
    11  C    0.007836  -0.028913  -0.000028   0.000000  -0.000000   0.000004
    12  C   -0.000000   0.000000  -0.000064   0.000435  -0.000081   0.000035
    13  C   -0.000000  -0.000000   0.000022  -0.000378   0.000023  -0.000009
    14  C    0.000000  -0.000000  -0.000075   0.002993  -0.000029   0.000044
    15  C    0.000000  -0.000000   0.001336  -0.000952  -0.001180   0.000530
    16  C    0.005288  -0.000028   0.000000  -0.000000   0.000000   0.000000
    17  C   -0.035644   0.002085  -0.000000   0.000000  -0.000000   0.000000
    18  C    0.420334  -0.011936   0.000000  -0.000000   0.000000  -0.000000
    19  C   -0.037110   0.401831  -0.000001   0.000000  -0.000000   0.000000
    20  C    0.000000  -0.000000   0.410044   0.414013  -0.030645  -0.037175
    21  C    0.000000   0.000000  -0.042229  -0.038036   0.406358   0.413609
    22  C    0.000034   0.001653   0.000301   0.000010  -0.000002   0.000033
    23  C    0.000004  -0.002105  -0.000032  -0.000004   0.000000   0.000028
    24  H   -0.000000  -0.000001  -0.002496   0.000573   0.000251  -0.001298
    25  H    0.000000   0.000000  -0.000001   0.000002  -0.000001   0.000000
    26  H   -0.000000   0.000000  -0.000000  -0.000000  -0.000000  -0.000000
    27  H   -0.000000  -0.000000  -0.000000  -0.000005   0.000009  -0.000001
    28  H   -0.000000   0.000000   0.000582  -0.004873   0.000409  -0.000034
    29  H   -0.000140   0.000015   0.000000  -0.000000   0.000000  -0.000000
    30  H   -0.003493  -0.000123  -0.000000   0.000000  -0.000000   0.000000
    31  H    0.454529  -0.003012   0.000000  -0.000000   0.000000  -0.000000
    32  H   -0.003012   0.428363  -0.000000   0.000000  -0.000000   0.000000
    33  H    0.000000  -0.000000   0.484381  -0.018297   0.005147  -0.004500
    34  H   -0.000000   0.000000  -0.018297   0.477033  -0.004818   0.004629
    35  H    0.000000  -0.000000   0.005147  -0.004818   0.500349  -0.025598
    36  H   -0.000000   0.000000  -0.004500   0.004629  -0.025598   0.499526
    37  H    0.000000  -0.000000  -0.001490  -0.001516  -0.021257  -0.021921
    38  H   -0.000000   0.000582  -0.000052  -0.000007   0.000011   0.000095
    39  H   -0.000005  -0.004872  -0.000007  -0.000000   0.000000   0.000004
    40  H    0.000009   0.000409   0.000011   0.000000  -0.000000  -0.000001
    41  H   -0.000001  -0.000034   0.000095   0.000004  -0.000001   0.000025
    42  H    0.000000   0.000135  -0.000054  -0.000000   0.000000   0.000003
              37         38         39         40         41         42
     1  C    0.000194   0.003920   0.000201  -0.000113   0.002859  -0.000010
     2  C   -0.000093   0.016979  -0.000844   0.000587   0.000177  -0.000093
     3  C   -0.000010  -0.037122   0.011067  -0.002142   0.000898   0.000194
     4  N    0.000000  -0.021700  -0.017914  -0.002378  -0.000025   0.006314
     5  S    0.000016  -0.000021  -0.000001   0.000001  -0.000013   0.000001
     6  C   -0.000040   0.000012  -0.000000  -0.000000   0.000005  -0.000000
     7  C   -0.000035  -0.000028   0.000000  -0.000000   0.000004   0.000000
     8  N    0.006315  -0.000140  -0.000001  -0.000001  -0.000008   0.000000
     9  S    0.000001  -0.000143  -0.000383  -0.000029  -0.000159   0.000016
    10  C   -0.000000   0.000053  -0.001510   0.001574  -0.000278  -0.000040
    11  C    0.000000   0.010568  -0.021367   0.003986  -0.002672  -0.000035
    12  C   -0.000003   0.000000  -0.000000   0.000000   0.000000  -0.000000
    13  C    0.000001  -0.000000   0.000000  -0.000000   0.000000   0.000000
    14  C    0.000005   0.000000  -0.000000   0.000000  -0.000000   0.000000
    15  C    0.000264  -0.000001   0.000000  -0.000000   0.000000   0.000000
    16  C   -0.000000  -0.000064   0.000435  -0.000080   0.000035  -0.000003
    17  C    0.000000   0.000022  -0.000378   0.000023  -0.000009   0.000001
    18  C    0.000000  -0.000075   0.002992  -0.000028   0.000044   0.000005
    19  C    0.000000   0.001336  -0.000951  -0.001180   0.000530   0.000264
    20  C   -0.050500   0.000300   0.000010  -0.000002   0.000033   0.000017
    21  C    0.424714  -0.000032  -0.000004   0.000000   0.000028   0.000003
    22  C    0.000017   0.410062   0.414006  -0.030638  -0.037190  -0.050497
    23  C    0.000003  -0.042236  -0.038033   0.406352   0.413620   0.424710
    24  H    0.000079  -0.002499   0.000573   0.000251  -0.001298   0.000079
    25  H    0.000000   0.000000  -0.000000   0.000000  -0.000000   0.000000
    26  H   -0.000000  -0.000000   0.000000  -0.000000   0.000000   0.000000
    27  H    0.000000   0.000000  -0.000000   0.000000  -0.000000   0.000000
    28  H    0.000135  -0.000000   0.000000  -0.000000   0.000000  -0.000000
    29  H    0.000000  -0.000001   0.000002  -0.000001   0.000000   0.000000
    30  H    0.000000  -0.000000  -0.000000  -0.000000  -0.000000  -0.000000
    31  H    0.000000  -0.000000  -0.000005   0.000009  -0.000001   0.000000
    32  H   -0.000000   0.000582  -0.004872   0.000409  -0.000034   0.000135
    33  H   -0.001490  -0.000052  -0.000007   0.000011   0.000095  -0.000054
    34  H   -0.001516  -0.000007  -0.000000   0.000000   0.000004  -0.000000
    35  H   -0.021257   0.000011   0.000000  -0.000000  -0.000001   0.000000
    36  H   -0.021921   0.000095   0.000004  -0.000001   0.000025   0.000003
    37  H    0.490904  -0.000054  -0.000000   0.000000   0.000003  -0.000002
    38  H   -0.000054   0.484374  -0.018291   0.005147  -0.004499  -0.001490
    39  H   -0.000000  -0.018291   0.477025  -0.004818   0.004628  -0.001515
    40  H    0.000000   0.005147  -0.004818   0.500350  -0.025598  -0.021256
    41  H    0.000003  -0.004499   0.004628  -0.025598   0.499520  -0.021921
    42  H   -0.000002  -0.001490  -0.001515  -0.021256  -0.021921   0.490907
 Mulliken charges:
               1
     1  C    0.093749
     2  C   -0.225384
     3  C    0.093740
     4  N   -0.029295
     5  S    0.071896
     6  C   -0.001009
     7  C    0.149898
     8  N   -0.029301
     9  S    0.071896
    10  C   -0.001008
    11  C    0.149899
    12  C   -0.209033
    13  C   -0.178207
    14  C   -0.170304
    15  C   -0.237411
    16  C   -0.209028
    17  C   -0.178206
    18  C   -0.170305
    19  C   -0.237415
    20  C   -0.284136
    21  C   -0.424399
    22  C   -0.284136
    23  C   -0.424411
    24  H    0.252496
    25  H    0.196957
    26  H    0.191065
    27  H    0.191888
    28  H    0.214820
    29  H    0.196957
    30  H    0.191065
    31  H    0.191888
    32  H    0.214824
    33  H    0.194995
    34  H    0.199948
    35  H    0.169568
    36  H    0.171193
    37  H    0.174270
    38  H    0.194995
    39  H    0.199949
    40  H    0.169566
    41  H    0.171196
    42  H    0.174269
 Sum of Mulliken charges =   1.00000
 Mulliken charges with hydrogens summed into heavy atoms:
               1
     1  C    0.093749
     2  C    0.027113
     3  C    0.093740
     4  N   -0.029295
     5  S    0.071896
     6  C   -0.001009
     7  C    0.149898
     8  N   -0.029301
     9  S    0.071896
    10  C   -0.001008
    11  C    0.149899
    12  C   -0.012076
    13  C    0.012858
    14  C    0.021584
    15  C   -0.022591
    16  C   -0.012071
    17  C    0.012859
    18  C    0.021583
    19  C   -0.022590
    20  C    0.110807
    21  C    0.090632
    22  C    0.110809
    23  C    0.090621
 Electronic spatial extent (au):  <R**2>=          10365.9498
 Charge=              1.0000 electrons
 Dipole moment (field-independent basis, Debye):
    X=              0.0001    Y=              5.2262    Z=              0.0001  Tot=              5.2262
 Quadrupole moment (field-independent basis, Debye-Ang):
   XX=            -67.2452   YY=           -108.1610   ZZ=           -154.8428
   XY=             -0.0003   XZ=              2.2455   YZ=             -0.0005
 Traceless Quadrupole moment (field-independent basis, Debye-Ang):
   XX=             42.8378   YY=              1.9220   ZZ=            -44.7598
   XY=             -0.0003   XZ=              2.2455   YZ=             -0.0005
 Octapole moment (field-independent basis, Debye-Ang**2):
  XXX=              0.0023  YYY=             23.1969  ZZZ=              0.0004  XYY=             -0.0003
  XXY=             -0.6147  XXZ=              0.0025  XZZ=             -0.0002  YZZ=             14.8712
  YYZ=              0.0018  XYZ=              6.8024
 Hexadecapole moment (field-independent basis, Debye-Ang**3):
 XXXX=          -8486.0887 YYYY=          -2308.7618 ZZZZ=           -340.2623 XXXY=             -0.0068
 XXXZ=             82.0926 YYYX=             -0.0082 YYYZ=             -0.0035 ZZZX=            -10.6304
 ZZZY=              0.0015 XXYY=          -1817.2998 XXZZ=          -2136.8770 YYZZ=           -518.4887
 XXYZ=             -0.0145 YYXZ=              0.3722 ZZXY=              0.0001
 N-N= 2.127852619795D+03 E-N=-8.085188591367D+03  KE= 1.635218216457D+03
 Unable to Open any file for archive entry.
 1\1\GINC-CN11\SP\RM062X TD-FC\def2TZVP\C19H19N2S2(1+)\2100011873\04-No
 v-2023\0\\# td=(nstates=150) M062X/def2TZVP scrf(smd, solvent=ethanol)
 \\A-1\\1,1\C,0,-1.259214,0.216698,-0.039367\C,0,0.000003,0.828935,-0.0
 00122\C,0,1.259209,0.216684,0.039249\N,0,2.433464,0.904848,0.145998\S,
 0,-1.557561,-1.512152,0.053882\C,0,-3.297665,-1.258824,-0.027283\C,0,-
 3.589904,0.108866,-0.118299\N,0,-2.433474,0.904863,-0.146106\S,0,1.557
 549,-1.512171,-0.053923\C,0,3.297657,-1.25885,0.027304\C,0,3.5899,0.10
 8842,0.118251\C,0,-4.301571,-2.224422,-0.003624\C,0,-5.624645,-1.79212
 5,-0.066975\C,0,-5.925643,-0.425687,-0.149009\C,0,-4.920394,0.538274,-
 0.174272\C,0,4.301563,-2.22445,0.003718\C,0,5.624635,-1.792149,0.06706
 6\C,0,5.925635,-0.425707,0.149021\C,0,4.920384,0.538258,0.174213\C,0,-
 2.510348,2.373529,-0.257226\C,0,-2.566433,3.073786,1.101522\C,0,2.5103
 39,2.373497,0.257299\C,0,2.566508,3.073929,-1.101357\H,0,0.000014,1.90
 904,-0.000214\H,0,-4.060576,-3.280313,0.063971\H,0,-6.427238,-2.522132
 ,-0.049094\H,0,-6.962056,-0.106514,-0.191342\H,0,-5.176748,1.590213,-0
 .22813\H,0,4.060566,-3.280345,-0.063815\H,0,6.42723,-2.522156,0.049231
 \H,0,6.962048,-0.106532,0.191339\H,0,5.176733,1.590201,0.228019\H,0,-1
 .657488,2.708489,-0.852128\H,0,-3.398115,2.597174,-0.852215\H,0,-3.441
 185,2.752064,1.674572\H,0,-1.673838,2.863356,1.699082\H,0,-2.63423,4.1
 56364,0.954302\H,0,1.657436,2.708379,0.852183\H,0,3.398074,2.597059,0.
 85237\H,0,3.441334,2.752344,-1.674368\H,0,1.673988,2.86351,-1.699033\H
 ,0,2.634214,4.156493,-0.95399\\Version=ES64L-G16RevC.02\State=1-A\HF=-
 1641.1886706\RMSD=6.595e-09\PG=C01 [X(C19H19N2S2)]\\@
 The archive entry for this job was punched.


 THOSE WHO ARE UNABLE TO LEARN FROM PAST MEETINGS
 ARE CONDEMNED TO REPEAT THEM.
 Job cpu time:       3 days 14 hours 28 minutes 24.1 seconds.
 Elapsed time:       0 days  2 hours 47 minutes 30.8 seconds.
 File lengths (MBytes):  RWF=  28896 Int=      0 D2E=      0 Chk=   2880 Scr=     32
 Normal termination of Gaussian 16 at Sat Nov  4 16:20:29 2023.
