 Entering Link 1 = D:\G09W\l1.exe PID=     20008.
  
 Copyright (c) 1988,1990,1992,1993,1995,1998,2003,2009, Gaussian, Inc.
                  All Rights Reserved.
  
 This is part of the Gaussian(R) 09 program.  It is based on
 the Gaussian(R) 03 system (copyright 2003, Gaussian, Inc.),
 the Gaussian(R) 98 system (copyright 1998, Gaussian, Inc.),
 the Gaussian(R) 94 system (copyright 1995, Gaussian, Inc.),
 the Gaussian 92(TM) system (copyright 1992, Gaussian, Inc.),
 the Gaussian 90(TM) system (copyright 1990, Gaussian, Inc.),
 the Gaussian 88(TM) system (copyright 1988, Gaussian, Inc.),
 the Gaussian 86(TM) system (copyright 1986, Carnegie Mellon
 University), and the Gaussian 82(TM) system (copyright 1983,
 Carnegie Mellon University). Gaussian is a federally registered
 trademark of Gaussian, Inc.
  
 This software contains proprietary and confidential information,
 including trade secrets, belonging to Gaussian, Inc.
  
 This software is provided under written license and may be
 used, copied, transmitted, or stored only in accord with that
 written license.
  
 The following legend is applicable only to US Government
 contracts under FAR:
  
                    RESTRICTED RIGHTS LEGEND
  
 Use, reproduction and disclosure by the US Government is
 subject to restrictions as set forth in subparagraphs (a)
 and (c) of the Commercial Computer Software - Restricted
 Rights clause in FAR 52.227-19.
  
 Gaussian, Inc.
 340 Quinnipiac St., Bldg. 40, Wallingford CT 06492
  
  
 ---------------------------------------------------------------
 Warning -- This program may not be used in any manner that
 competes with the business of Gaussian, Inc. or will provide
 assistance to any competitor of Gaussian, Inc.  The licensee
 of this program is prohibited from giving any competitor of
 Gaussian, Inc. access to this program.  By using this program,
 the user acknowledges that Gaussian, Inc. is engaged in the
 business of creating and licensing software in the field of
 computational chemistry and represents and warrants to the
 licensee that it is not a competitor of Gaussian, Inc. and that
 it will not use this program in any manner prohibited above.
 ---------------------------------------------------------------
  

 Cite this work as:
 Gaussian 09, Revision A.02,
 M. J. Frisch, G. W. Trucks, H. B. Schlegel, G. E. Scuseria, 
 M. A. Robb, J. R. Cheeseman, G. Scalmani, V. Barone, B. Mennucci, 
 G. A. Petersson, H. Nakatsuji, M. Caricato, X. Li, H. P. Hratchian, 
 A. F. Izmaylov, J. Bloino, G. Zheng, J. L. Sonnenberg, M. Hada, 
 M. Ehara, K. Toyota, R. Fukuda, J. Hasegawa, M. Ishida, T. Nakajima, 
 Y. Honda, O. Kitao, H. Nakai, T. Vreven, J. A. Montgomery, Jr., 
 J. E. Peralta, F. Ogliaro, M. Bearpark, J. J. Heyd, E. Brothers, 
 K. N. Kudin, V. N. Staroverov, R. Kobayashi, J. Normand, 
 K. Raghavachari, A. Rendell, J. C. Burant, S. S. Iyengar, J. Tomasi, 
 M. Cossi, N. Rega, J. M. Millam, M. Klene, J. E. Knox, J. B. Cross, 
 V. Bakken, C. Adamo, J. Jaramillo, R. Gomperts, R. E. Stratmann, 
 O. Yazyev, A. J. Austin, R. Cammi, C. Pomelli, J. W. Ochterski, 
 R. L. Martin, K. Morokuma, V. G. Zakrzewski, G. A. Voth, 
 P. Salvador, J. J. Dannenberg, S. Dapprich, A. D. Daniels, 
 O. Farkas, J. B. Foresman, J. V. Ortiz, J. Cioslowski, 
 and D. J. Fox, Gaussian, Inc., Wallingford CT, 2009.
 
 ******************************************
 Gaussian 09:  IA32W-G09RevA.02 11-Jun-2009
                26-Oct-2023 
 ******************************************
 %chk=D:\Gaussian\Gaussian Calculate for PCL\A-1\A-1-input-1-2.chk
 %nprocshared=4
 Will use up to    4 processors via shared memory.
 %mem=1175MB
 ----------------------------------------------------------------
 # td=(nstates=50) b3lyp/6-311+g(2d,p) scrf(smd, solvent=ethanol)
 ----------------------------------------------------------------
 1/38=1/1;
 2/12=2,17=6,18=5,40=1/2;
 3/5=4,6=6,7=112,11=2,16=1,25=1,30=1,70=32201,72=4,74=-5/1,2,8,3;
 4//1;
 5/5=2,38=5,53=4/2;
 8/6=1,10=2,108=50/1;
 9/41=50,42=1/14;
 6/7=2,8=2,9=2,10=2/1;
 99/5=1,9=1/99;
 ---
 A-1
 ---
 Symbolic Z-matrix:
 Charge =  1 Multiplicity = 1
 C                    -1.25921   0.2167   -0.03937 
 C                     0.        0.82894  -0.00012 
 C                     1.25921   0.21668   0.03925 
 N                     2.43346   0.90485   0.146 
 S                    -1.55756  -1.51215   0.05388 
 C                    -3.29767  -1.25882  -0.02728 
 C                    -3.5899    0.10887  -0.1183 
 N                    -2.43347   0.90486  -0.14611 
 S                     1.55755  -1.51217  -0.05392 
 C                     3.29766  -1.25885   0.0273 
 C                     3.5899    0.10884   0.11825 
 C                    -4.30157  -2.22442  -0.00362 
 C                    -5.62465  -1.79213  -0.06698 
 C                    -5.92564  -0.42569  -0.14901 
 C                    -4.92039   0.53827  -0.17427 
 C                     4.30156  -2.22445   0.00372 
 C                     5.62464  -1.79215   0.06707 
 C                     5.92564  -0.42571   0.14902 
 C                     4.92038   0.53826   0.17421 
 C                    -2.51035   2.37353  -0.25723 
 C                    -2.56643   3.07379   1.10152 
 C                     2.51034   2.3735    0.2573 
 C                     2.56651   3.07393  -1.10136 
 H                     0.00001   1.90904  -0.00021 
 H                    -4.06058  -3.28031   0.06397 
 H                    -6.42724  -2.52213  -0.04909 
 H                    -6.96206  -0.10651  -0.19134 
 H                    -5.17675   1.59021  -0.22813 
 H                     4.06057  -3.28035  -0.06382 
 H                     6.42723  -2.52216   0.04923 
 H                     6.96205  -0.10653   0.19134 
 H                     5.17673   1.5902    0.22802 
 H                    -1.65749   2.70849  -0.85213 
 H                    -3.39812   2.59717  -0.85222 
 H                    -3.44119   2.75206   1.67457 
 H                    -1.67384   2.86336   1.69908 
 H                    -2.63423   4.15636   0.9543 
 H                     1.65744   2.70838   0.85218 
 H                     3.39807   2.59706   0.85237 
 H                     3.44133   2.75234  -1.67437 
 H                     1.67399   2.86351  -1.69903 
 H                     2.63421   4.15649  -0.95399 
 
                          Input orientation:                          
 ---------------------------------------------------------------------
 Center     Atomic      Atomic             Coordinates (Angstroms)
 Number     Number       Type             X           Y           Z
 ---------------------------------------------------------------------
      1          6           0       -1.259214    0.216698   -0.039367
      2          6           0        0.000003    0.828935   -0.000122
      3          6           0        1.259209    0.216684    0.039249
      4          7           0        2.433464    0.904848    0.145998
      5         16           0       -1.557561   -1.512152    0.053882
      6          6           0       -3.297665   -1.258824   -0.027283
      7          6           0       -3.589904    0.108866   -0.118299
      8          7           0       -2.433474    0.904863   -0.146106
      9         16           0        1.557549   -1.512171   -0.053923
     10          6           0        3.297657   -1.258850    0.027304
     11          6           0        3.589900    0.108842    0.118251
     12          6           0       -4.301571   -2.224422   -0.003624
     13          6           0       -5.624645   -1.792125   -0.066975
     14          6           0       -5.925643   -0.425687   -0.149009
     15          6           0       -4.920394    0.538274   -0.174272
     16          6           0        4.301563   -2.224450    0.003718
     17          6           0        5.624635   -1.792149    0.067066
     18          6           0        5.925635   -0.425707    0.149021
     19          6           0        4.920384    0.538258    0.174213
     20          6           0       -2.510348    2.373529   -0.257226
     21          6           0       -2.566433    3.073786    1.101522
     22          6           0        2.510339    2.373497    0.257299
     23          6           0        2.566508    3.073929   -1.101357
     24          1           0        0.000014    1.909040   -0.000214
     25          1           0       -4.060576   -3.280313    0.063971
     26          1           0       -6.427238   -2.522132   -0.049094
     27          1           0       -6.962056   -0.106514   -0.191342
     28          1           0       -5.176748    1.590213   -0.228130
     29          1           0        4.060566   -3.280345   -0.063815
     30          1           0        6.427230   -2.522156    0.049231
     31          1           0        6.962048   -0.106532    0.191339
     32          1           0        5.176733    1.590201    0.228019
     33          1           0       -1.657488    2.708489   -0.852128
     34          1           0       -3.398115    2.597174   -0.852215
     35          1           0       -3.441185    2.752064    1.674572
     36          1           0       -1.673838    2.863356    1.699082
     37          1           0       -2.634230    4.156364    0.954302
     38          1           0        1.657436    2.708379    0.852183
     39          1           0        3.398074    2.597059    0.852370
     40          1           0        3.441334    2.752344   -1.674368
     41          1           0        1.673988    2.863510   -1.699033
     42          1           0        2.634214    4.156493   -0.953990
 ---------------------------------------------------------------------
                    Distance matrix (angstroms):
                    1          2          3          4          5
     1  C    0.000000
     2  C    1.400715   0.000000
     3  C    2.519650   1.400715   0.000000
     4  N    3.760822   2.439026   1.365225   0.000000
     5  S    1.756880   2.812403   3.305039   4.666761   0.000000
     6  C    2.516465   3.903087   4.790266   6.128405   1.760320
     7  C    2.334518   3.663318   4.852870   6.081480   2.605334
     8  N    1.365229   2.439034   3.760832   4.875696   2.578600
     9  S    3.305050   2.812405   1.756880   2.578600   3.116975
    10  C    4.790278   3.903091   2.516468   2.332918   4.861894
    11  C    4.852874   3.663319   2.334522   1.404186   5.397047
    12  C    3.900805   5.275087   6.073147   7.428015   2.835529
    13  C    4.805530   6.205730   7.171753   8.500126   4.078500
    14  C    4.711713   6.058839   7.215967   8.469476   4.505742
    15  C    3.677751   4.932050   6.191648   7.369951   3.945244
    16  C    6.073162   5.275092   3.900810   3.647265   5.902476
    17  C    7.171762   6.205730   4.805531   4.178947   7.187664
    18  C    7.215970   6.058835   4.711714   3.737064   7.562251
    19  C    6.191643   4.932042   3.677748   2.513952   6.795766
    20  C    2.502942   2.958671   4.353095   5.173093   4.012868
    21  C    3.342664   3.583234   4.891523   5.533199   4.811050
    22  C    4.353082   2.958669   2.502941   1.474865   5.629161
    23  C    4.891599   3.583248   3.342733   2.505695   6.274923
    24  H    2.109789   1.080105   2.109786   2.636562   3.759458
    25  H    4.481896   5.777398   6.366295   7.726245   3.064568
    26  H    5.848911   7.248550   8.160293   9.502331   4.974376
    27  H    5.714015   7.027225   8.230846   9.455816   5.589680
    28  H    4.155628   5.237393   6.586320   7.650165   4.775219
    29  H    6.366315   5.777405   4.481901   4.495256   5.890985
    30  H    8.160306   7.248551   5.848913   5.263448   8.048417
    31  H    8.230848   7.027220   5.714015   4.640368   8.635879
    32  H    6.586305   5.237376   4.155620   2.828774   7.416578
    33  H    2.651080   2.646869   3.938371   4.580968   4.317945
    34  H    3.301861   3.924275   5.305856   6.153675   4.592952
    35  H    3.758546   4.283083   5.585350   6.345096   4.935404
    36  H    3.193574   3.134949   4.285170   4.808092   4.676032
    37  H    4.289407   4.349930   5.614024   6.075132   5.839696
    38  H    3.938297   2.646851   2.651036   2.086538   5.365293
    39  H    5.305812   3.924270   3.301832   2.071958   6.487027
    40  H    5.585506   4.283148   3.758687   2.782584   6.794242
    41  H    4.285298   3.134967   3.193643   2.795943   5.715071
    42  H    5.614027   4.349894   4.289436   3.438527   7.121820
                    6          7          8          9         10
     6  C    0.000000
     7  C    1.401522   0.000000
     8  N    2.332914   1.404178   0.000000
     9  S    4.861892   5.397053   4.666778   0.000000
    10  C    6.595548   7.023556   6.128425   1.760325   0.000000
    11  C    7.023549   7.183700   6.081494   2.605336   1.401520
    12  C    1.393114   2.442100   3.647261   5.902467   7.660389
    13  C    2.387639   2.785062   4.178945   7.187660   8.938722
    14  C    2.759566   2.396324   3.737060   7.562252   9.262533
    15  C    2.425782   1.399188   2.513951   6.795775   8.414669
    16  C    7.660396   8.230097   7.428039   2.835538   1.393114
    17  C    8.938723   9.410417   8.500143   4.078506   2.387638
    18  C    9.262528   9.534291   8.469488   4.505748   2.759567
    19  C    8.414656   8.526133   7.369955   3.945246   2.425783
    20  C    3.723806   2.512656   1.474868   5.629190   6.856242
    21  C    4.536564   3.365443   2.505690   6.274813   7.369751
    22  C    6.856213   6.517867   5.173095   4.012865   3.723803
    23  C    7.369865   6.903580   5.533279   4.811178   4.536676
    24  H    4.572831   4.017721   2.636573   3.759453   4.572826
    25  H    2.162586   3.426556   4.495252   5.890972   7.630940
    26  H    3.375004   3.870065   5.263445   8.048408   9.806901
    27  H    3.844801   3.379813   4.640365   8.635880  10.326538
    28  H    3.418816   2.173597   2.828778   7.416596   8.944157
    29  H    7.630953   8.367760   7.726273   3.064577   2.162585
    30  H    9.806908  10.358249   9.502352   4.974385   3.375004
    31  H   10.326533  10.558691   9.455825   5.589685   3.844802
    32  H    8.944135   8.897652   7.650157   4.775217   3.418816
    33  H    4.371513   3.321261   2.086549   5.365404   6.408326
    34  H    3.944531   2.601364   2.071965   6.487110   7.776621
    35  H    4.359373   3.197343   2.782535   6.794022   8.013296
    36  H    4.754947   3.815940   2.795972   5.714904   6.671071
    37  H    5.543277   4.294884   3.438526   7.121785   8.085243
    38  H    6.408212   5.935813   4.580916   4.317875   4.371459
    39  H    7.776538   7.480985   6.153652   4.592893   3.944471
    40  H    8.013518   7.671221   6.345245   4.935643   4.359588
    41  H    6.671261   6.147792   4.808235   4.676166   4.755039
    42  H    8.085273   7.471366   6.075133   5.839784   5.543378
                   11         12         13         14         15
    11  C    0.000000
    12  C    8.230084   0.000000
    13  C    9.410410   1.393348   0.000000
    14  C    9.534291   2.427796   1.401600   0.000000
    15  C    8.526141   2.836292   2.436851   1.392977   0.000000
    16  C    2.442096   8.603137   9.935870  10.385308   9.628542
    17  C    2.785055   9.935865  11.250079  11.632834  10.802164
    18  C    2.396320  10.385298  11.632829  11.855025  10.893582
    19  C    1.399185   9.628524  10.802152  10.893574   9.846946
    20  C    6.517884   4.941047   5.204586   4.417189   3.030407
    21  C    6.903488   5.683578   5.864737   5.009434   3.687493
    22  C    2.512658   8.222594   9.145246   8.897545   7.666165
    23  C    3.365489   8.743458   9.583497   9.234225   7.958815
    24  H    4.017714   5.965665   6.733489   6.370754   5.110745
    25  H    8.367742   1.085151   2.162906   3.416537   3.921435
    26  H   10.358237   2.146895   1.085074   2.157930   3.413551
    27  H   10.558693   3.405724   2.155324   1.085272   2.141127
    28  H    8.897671   3.920176   3.415669   2.151966   1.084064
    29  H    3.426553   8.428756   9.798884  10.386563   9.759697
    30  H    3.870059  10.733062  12.074524  12.531079  11.755201
    31  H    3.379809  11.462660  12.701685  12.896134  11.905540
    32  H    2.173594  10.219748  11.322408  11.290204  10.159742
    33  H    5.935898   5.660808   6.050647   5.341777   3.976918
    34  H    7.481040   4.978366   4.983973   4.002572   2.648775
    35  H    7.671044   5.321844   5.333867   4.426746   3.241473
    36  H    6.147627   5.974083   6.356205   5.684284   4.410849
    37  H    7.471359   6.664239   6.735734   5.748555   4.426150
    38  H    3.321245   7.782975   8.609767   8.266066   7.002201
    39  H    2.601337   9.124908  10.075693   9.852485   8.630730
    40  H    3.197445   9.354794  10.267808  10.008339   8.779003
    41  H    3.815945   8.029245   8.809574   8.424713   7.156640
    42  H    4.294941   9.472296  10.216732   9.742460   8.412584
                   16         17         18         19         20
    16  C    0.000000
    17  C    1.393347   0.000000
    18  C    2.427797   1.401600   0.000000
    19  C    2.836294   2.436852   1.392980   0.000000
    20  C    8.222629   9.145271   8.897560   7.666168   0.000000
    21  C    8.743332   9.583372   9.234118   7.958721   1.529608
    22  C    4.941043   5.204578   4.417184   3.030400   5.046983
    23  C    5.683698   5.864816   5.009454   3.687470   5.193995
    24  H    5.965658   6.733475   6.370738   5.110725   2.565877
    25  H    8.428751   9.798875  10.386550   9.759676   5.871312
    26  H   10.733060  12.074519  12.531070  11.755185   6.273184
    27  H   11.462670  12.701690  12.896135  11.905534   5.096338
    28  H   10.219774  11.322429  11.290221  10.159752   2.779230
    29  H    1.085152   2.162908   3.416539   3.921438   8.670675
    30  H    2.146896   1.085075   2.157928   3.413552  10.195192
    31  H    3.405724   2.155324   1.085272   2.141130   9.801949
    32  H    3.920178   3.415672   2.151971   1.084064   7.742111
    33  H    7.783100   8.609877   8.266150   7.002262   1.092464
    34  H    9.125005  10.075775   9.852543   8.630766   1.091860
    35  H    9.354549  10.267572  10.008139   8.778830   2.177519
    36  H    8.029038   8.809365   8.424525   7.156470   2.183305
    37  H    9.472255  10.216694   9.742440   8.412575   2.159085
    38  H    5.660751   6.050606   5.341765   3.976921   4.325891
    39  H    4.978298   4.983916   4.002547   2.648771   6.015864
    40  H    5.322072   5.334024   4.426794   3.241453   6.129789
    41  H    5.974182   6.356247   5.684255   4.410775   4.452814
    42  H    6.664360   6.735838   5.748621   4.426177   5.489167
                   21         22         23         24         25
    21  C    0.000000
    22  C    5.193913   0.000000
    23  C    5.585674   1.529610   0.000000
    24  H    3.026071   2.565885   3.025950   0.000000
    25  H    6.609353   8.670632   9.254870   6.589529   0.000000
    26  H    6.895218  10.195163  10.644746   7.806872   2.487712
    27  H    5.577392   9.801939  10.086470   7.250476   4.307757
    28  H    3.283703   7.742124   7.932336   5.191576   5.005316
    29  H    9.254734   5.871307   6.609501   6.589525   8.122147
    30  H   10.644616   6.273177   6.895302   7.806859  10.515184
    31  H   10.086367   5.096333   5.577380   7.250458  11.471153
    32  H    7.932254   2.779221   3.283590   5.191548  10.443979
    33  H    2.185491   4.325948   4.247094   2.027853   6.517654
    34  H    2.176222   6.015886   5.988831   3.570254   5.985241
    35  H    1.094113   6.129650   6.625840   3.918858   6.274333
    36  H    1.094570   4.452644   5.085994   2.569067   6.790786
    37  H    1.094644   5.489173   5.696058   3.591769   7.624390
    38  H    4.246971   1.092463   2.185488   2.027948   8.317534
    39  H    5.988713   1.091862   2.176225   3.570306   9.528722
    40  H    6.625870   2.177525   1.094111   3.918754   9.782302
    41  H    5.086108   2.183307   1.094571   2.568888   8.587198
    42  H    5.695973   2.159083   1.094644   3.591621  10.057959
                   26         27         28         29         30
    26  H    0.000000
    27  H    2.478200   0.000000
    28  H    4.301995   2.463242   0.000000
    29  H   10.515186  11.471167  10.444008   0.000000
    30  H   12.854844  13.607578  12.314252   2.487716   0.000000
    31  H   13.607568  13.929362  12.263982   4.307759   2.478198
    32  H   12.314228  12.263968  10.363525   5.005319   4.301998
    33  H    7.124239   6.041467   3.745011   8.317675   9.671337
    34  H    6.002323   4.521986   2.137051   9.528837  11.115644
    35  H    6.301165   4.904043   2.825306   9.782035  11.306845
    36  H    7.392862   6.352880   4.195881   8.586982   9.866765
    37  H    7.745710   6.181805   3.801010  10.057907  11.293000
    38  H    9.671220   9.127333   7.008812   6.517584   7.124196
    39  H   11.115553  10.757831   8.701080   5.985162   6.002265
    40  H   11.307092  10.890499   8.815526   6.274605   6.301327
    41  H    9.866980   9.256102   7.121617   6.790924   7.392911
    42  H   11.293041  10.528213   8.253714   7.624530   7.745823
                   31         32         33         34         35
    31  H    0.000000
    32  H    2.463249   0.000000
    33  H    9.127407   7.008842   0.000000
    34  H   10.757881   8.701087   1.744183   0.000000
    35  H   10.890308   8.815382   3.093168   2.531896   0.000000
    36  H    9.255920   7.121466   2.555958   3.090809   1.771017
    37  H   10.528198   8.253716   2.512679   2.505613   1.772575
    38  H    6.041469   3.745044   3.727385   5.336285   5.164704
    39  H    4.521977   2.137102   5.336332   7.006696   6.890247
    40  H    4.904025   2.825113   5.164880   6.890434   7.654049
    41  H    6.352813   4.195720   3.440932   5.149200   6.128509
    42  H    6.181853   3.800974   4.530541   6.231439   6.766996
                   36         37         38         39         40
    36  H    0.000000
    37  H    1.774520   0.000000
    38  H    3.440733   4.530506   0.000000
    39  H    5.148993   6.231413   1.744194   0.000000
    40  H    6.128415   6.767101   3.093167   2.531875   0.000000
    41  H    4.770233   5.222298   2.555982   3.090813   1.771010
    42  H    5.222098   5.603399   2.512646   2.505644   1.772575
                   41         42
    41  H    0.000000
    42  H    1.774522   0.000000
 Stoichiometry    C19H19N2S2(1+)
 Framework group  C1[X(C19H19N2S2)]
 Deg. of freedom   120
 Full point group                 C1      NOp   1
 Largest Abelian subgroup         C1      NOp   1
 Largest concise Abelian subgroup C1      NOp   1
                         Standard orientation:                         
 ---------------------------------------------------------------------
 Center     Atomic      Atomic             Coordinates (Angstroms)
 Number     Number       Type             X           Y           Z
 ---------------------------------------------------------------------
      1          6           0       -1.259214    0.216698   -0.039367
      2          6           0        0.000003    0.828935   -0.000122
      3          6           0        1.259209    0.216684    0.039249
      4          7           0        2.433464    0.904848    0.145998
      5         16           0       -1.557561   -1.512152    0.053882
      6          6           0       -3.297665   -1.258824   -0.027283
      7          6           0       -3.589904    0.108866   -0.118299
      8          7           0       -2.433474    0.904863   -0.146106
      9         16           0        1.557549   -1.512171   -0.053923
     10          6           0        3.297657   -1.258850    0.027304
     11          6           0        3.589900    0.108842    0.118251
     12          6           0       -4.301571   -2.224422   -0.003624
     13          6           0       -5.624645   -1.792125   -0.066975
     14          6           0       -5.925643   -0.425687   -0.149009
     15          6           0       -4.920394    0.538274   -0.174272
     16          6           0        4.301563   -2.224450    0.003718
     17          6           0        5.624635   -1.792149    0.067066
     18          6           0        5.925635   -0.425707    0.149021
     19          6           0        4.920384    0.538258    0.174213
     20          6           0       -2.510348    2.373529   -0.257226
     21          6           0       -2.566433    3.073786    1.101522
     22          6           0        2.510339    2.373497    0.257299
     23          6           0        2.566508    3.073929   -1.101357
     24          1           0        0.000014    1.909040   -0.000214
     25          1           0       -4.060576   -3.280313    0.063971
     26          1           0       -6.427238   -2.522132   -0.049094
     27          1           0       -6.962056   -0.106514   -0.191342
     28          1           0       -5.176748    1.590213   -0.228130
     29          1           0        4.060566   -3.280345   -0.063815
     30          1           0        6.427230   -2.522156    0.049231
     31          1           0        6.962048   -0.106532    0.191339
     32          1           0        5.176733    1.590201    0.228019
     33          1           0       -1.657488    2.708489   -0.852128
     34          1           0       -3.398115    2.597174   -0.852215
     35          1           0       -3.441185    2.752064    1.674572
     36          1           0       -1.673838    2.863356    1.699082
     37          1           0       -2.634230    4.156364    0.954302
     38          1           0        1.657436    2.708379    0.852183
     39          1           0        3.398074    2.597059    0.852370
     40          1           0        3.441334    2.752344   -1.674368
     41          1           0        1.673988    2.863510   -1.699033
     42          1           0        2.634214    4.156493   -0.953990
 ---------------------------------------------------------------------
 Rotational constants (GHZ):      0.5197631      0.1187459      0.0985340
 Standard basis: 6-311+G(2d,p) (5D, 7F)
 There are   751 symmetry adapted basis functions of A   symmetry.
 Integral buffers will be    262144 words long.
 Raffenetti 2 integral format.
 Two-electron integral symmetry is turned on.
   751 basis functions,  1146 primitive gaussians,   797 cartesian basis functions
    89 alpha electrons       89 beta electrons
       nuclear repulsion energy      2127.8579621336 Hartrees.
 NAtoms=   42 NActive=   42 NUniq=   42 SFac= 7.50D-01 NAtFMM=   80 NAOKFM=F Big=F
 ------------------------------------------------------------------------------
 Polarizable Continuum Model (PCM)
 =================================
 Model                : PCM.
 Atomic radii         : SMD-Coulomb.
 Polarization charges : Total charges.
 Charge compensation  : None.
 Solution method      : Matrix inversion.
 Cavity type          : VdW (van der Waals Surface) (Alpha=1.000).
 Cavity algorithm     : GePol (No added spheres)
                        Default sphere list used, NSphG=   42.
                        Lebedev-Laikov grids with approx.  5.0 points / Ang**2.
                        Smoothing algorithm: Karplus/York (Gamma=1.0000).
                        Polarization charges: spherical gaussians, with
                                              point-specific exponents (IZeta= 3).
                        Self-potential: point-specific (ISelfS= 7).
                        Self-field    : sphere-specific E.n sum rule (ISelfD= 2).
 Solvent              : Ethanol, Eps=  24.852000 Eps(inf)=   1.852593
 ------------------------------------------------------------------------------
 ------------------------------------------------------------------------------
 Atomic radii for non-electrostatic terms: SMD-CDS.
 ------------------------------------------------------------------------------
 Nuclear repulsion after PCM non-electrostatic terms =     2127.8522779894 Hartrees.
 One-electron integrals computed using PRISM.
 NBasis=   751 RedAO= T  NBF=   751
 NBsUse=   745 1.00D-06 NBFU=   745
 Harris functional with IExCor=  402 diagonalized for initial guess.
 ExpMin= 4.05D-02 ExpMax= 9.34D+04 ExpMxC= 3.17D+03 IAcc=2 IRadAn=         0 AccDes= 0.00D+00
 HarFok:  IExCor=  402 AccDes= 0.00D+00 IRadAn=         0 IDoV= 1
 ScaDFX=  1.000000  1.000000  1.000000  1.000000
 FoFCou: FMM=F IPFlag=           0 FMFlag=      100000 FMFlg1=           0
         NFxFlg=           0 DoJE=T BraDBF=F KetDBF=T FulRan=T
         Omega=  0.000000  0.000000  1.000000  0.000000  0.000000 ICntrl=     500 IOpCl=  0
         NMat0=    1 NMatS0=    1 NMatT0=    0 NMatD0=    1 NMtDS0=    0 NMtDT0=    0
         I1Cent=           4 NGrid=           0.
 Petite list used in FoFCou.
 Initial guess orbital symmetries:
       Occupied  (A) (A) (A) (A) (A) (A) (A) (A) (A) (A) (A) (A)
                 (A) (A) (A) (A) (A) (A) (A) (A) (A) (A) (A) (A)
                 (A) (A) (A) (A) (A) (A) (A) (A) (A) (A) (A) (A)
                 (A) (A) (A) (A) (A) (A) (A) (A) (A) (A) (A) (A)
                 (A) (A) (A) (A) (A) (A) (A) (A) (A) (A) (A) (A)
                 (A) (A) (A) (A) (A) (A) (A) (A) (A) (A) (A) (A)
                 (A) (A) (A) (A) (A) (A) (A) (A) (A) (A) (A) (A)
                 (A) (A) (A) (A) (A)
       Virtual   (A) (A) (A) (A) (A) (A) (A) (A) (A) (A) (A) (A)
                 (A) (A) (A) (A) (A) (A) (A) (A) (A) (A) (A) (A)
                 (A) (A) (A) (A) (A) (A) (A) (A) (A) (A) (A) (A)
                 (A) (A) (A) (A) (A) (A) (A) (A) (A) (A) (A) (A)
                 (A) (A) (A) (A) (A) (A) (A) (A) (A) (A) (A) (A)
                 (A) (A) (A) (A) (A) (A) (A) (A) (A) (A) (A) (A)
                 (A) (A) (A) (A) (A) (A) (A) (A) (A) (A) (A) (A)
                 (A) (A) (A) (A) (A) (A) (A) (A) (A) (A) (A) (A)
                 (A) (A) (A) (A) (A) (A) (A) (A) (A) (A) (A) (A)
                 (A) (A) (A) (A) (A) (A) (A) (A) (A) (A) (A) (A)
                 (A) (A) (A) (A) (A) (A) (A) (A) (A) (A) (A) (A)
                 (A) (A) (A) (A) (A) (A) (A) (A) (A) (A) (A) (A)
                 (A) (A) (A) (A) (A) (A) (A) (A) (A) (A) (A) (A)
                 (A) (A) (A) (A) (A) (A) (A) (A) (A) (A) (A) (A)
                 (A) (A) (A) (A) (A) (A) (A) (A) (A) (A) (A) (A)
                 (A) (A) (A) (A) (A) (A) (A) (A) (A) (A) (A) (A)
                 (A) (A) (A) (A) (A) (A) (A) (A) (A) (A) (A) (A)
                 (A) (A) (A) (A) (A) (A) (A) (A) (A) (A) (A) (A)
                 (A) (A) (A) (A) (A) (A) (A) (A) (A) (A) (A) (A)
                 (A) (A) (A) (A) (A) (A) (A) (A) (A) (A) (A) (A)
                 (A) (A) (A) (A) (A) (A) (A) (A) (A) (A) (A) (A)
                 (A) (A) (A) (A) (A) (A) (A) (A) (A) (A) (A) (A)
                 (A) (A) (A) (A) (A) (A) (A) (A) (A) (A) (A) (A)
                 (A) (A) (A) (A) (A) (A) (A) (A) (A) (A) (A) (A)
                 (A) (A) (A) (A) (A) (A) (A) (A) (A) (A) (A) (A)
                 (A) (A) (A) (A) (A) (A) (A) (A) (A) (A) (A) (A)
                 (A) (A) (A) (A) (A) (A) (A) (A) (A) (A) (A) (A)
                 (A) (A) (A) (A) (A) (A) (A) (A) (A) (A) (A) (A)
                 (A) (A) (A) (A) (A) (A) (A) (A) (A) (A) (A) (A)
                 (A) (A) (A) (A) (A) (A) (A) (A) (A) (A) (A) (A)
                 (A) (A) (A) (A) (A) (A) (A) (A) (A) (A) (A) (A)
                 (A) (A) (A) (A) (A) (A) (A) (A) (A) (A) (A) (A)
                 (A) (A) (A) (A) (A) (A) (A) (A) (A) (A) (A) (A)
                 (A) (A) (A) (A) (A) (A) (A) (A) (A) (A) (A) (A)
                 (A) (A) (A) (A) (A) (A) (A) (A) (A) (A) (A) (A)
                 (A) (A) (A) (A) (A) (A) (A) (A) (A) (A) (A) (A)
                 (A) (A) (A) (A) (A) (A) (A) (A) (A) (A) (A) (A)
                 (A) (A) (A) (A) (A) (A) (A) (A) (A) (A) (A) (A)
                 (A) (A) (A) (A) (A) (A) (A) (A) (A) (A) (A) (A)
                 (A) (A) (A) (A) (A) (A) (A) (A) (A) (A) (A) (A)
                 (A) (A) (A) (A) (A) (A) (A) (A) (A) (A) (A) (A)
                 (A) (A) (A) (A) (A) (A) (A) (A) (A) (A) (A) (A)
                 (A) (A) (A) (A) (A) (A) (A) (A) (A) (A) (A) (A)
                 (A) (A) (A) (A) (A) (A) (A) (A) (A) (A) (A) (A)
                 (A) (A) (A) (A) (A) (A) (A) (A) (A) (A) (A) (A)
                 (A) (A) (A) (A) (A) (A) (A) (A) (A) (A) (A) (A)
                 (A) (A) (A) (A) (A) (A) (A) (A) (A) (A) (A) (A)
                 (A) (A) (A) (A) (A) (A) (A) (A) (A) (A) (A) (A)
                 (A) (A) (A) (A) (A) (A) (A) (A) (A) (A) (A) (A)
                 (A) (A) (A) (A) (A) (A) (A) (A) (A) (A) (A) (A)
                 (A) (A) (A) (A) (A) (A) (A) (A) (A) (A) (A) (A)
                 (A) (A) (A) (A) (A) (A) (A) (A) (A) (A) (A) (A)
                 (A) (A) (A) (A) (A) (A) (A) (A) (A) (A) (A) (A)
                 (A) (A) (A) (A) (A) (A) (A) (A) (A) (A) (A) (A)
                 (A) (A) (A) (A) (A) (A) (A) (A)
 The electronic state of the initial guess is 1-A.
 Requested convergence on RMS density matrix=1.00D-08 within 128 cycles.
 Requested convergence on MAX density matrix=1.00D-06.
 Requested convergence on             energy=1.00D-06.
 No special actions if energy rises.
 Error on total polarization charges =  0.06026
 SCF Done:  E(RB3LYP) =  -1641.53284560     A.U. after   14 cycles
             Convg  =    0.2596D-08             -V/T =  2.0032
 SMD-CDS (non-electrostatic) energy             (kcal/mol) =      -3.57
 (included in total energy above)
 ExpMin= 4.05D-02 ExpMax= 9.34D+04 ExpMxC= 3.17D+03 IAcc=3 IRadAn=         5 AccDes= 0.00D+00
 HarFok:  IExCor=  205 AccDes= 0.00D+00 IRadAn=         5 IDoV=-2
 ScaDFX=  1.000000  1.000000  1.000000  1.000000
 Range of M.O.s used for correlation:    32   745
 NBasis=   751 NAE=    89 NBE=    89 NFC=    31 NFV=     0
 NROrb=    714 NOA=    58 NOB=    58 NVA=   656 NVB=   656

 **** Warning!!: The largest alpha MO coefficient is  0.91579183D+02

 NEqPCM:  Using non-equilibrium solvation (IEInf=1, Eps=  24.8520, EpsInf=   1.8526)
 Orbital symmetries:
       Occupied  (A) (A) (A) (A) (A) (A) (A) (A) (A) (A) (A) (A)
                 (A) (A) (A) (A) (A) (A) (A) (A) (A) (A) (A) (A)
                 (A) (A) (A) (A) (A) (A) (A) (A) (A) (A) (A) (A)
                 (A) (A) (A) (A) (A) (A) (A) (A) (A) (A) (A) (A)
                 (A) (A) (A) (A) (A) (A) (A) (A) (A) (A) (A) (A)
                 (A) (A) (A) (A) (A) (A) (A) (A) (A) (A) (A) (A)
                 (A) (A) (A) (A) (A) (A) (A) (A) (A) (A) (A) (A)
                 (A) (A) (A) (A) (A)
       Virtual   (A) (A) (A) (A) (A) (A) (A) (A) (A) (A) (A) (A)
                 (A) (A) (A) (A) (A) (A) (A) (A) (A) (A) (A) (A)
                 (A) (A) (A) (A) (A) (A) (A) (A) (A) (A) (A) (A)
                 (A) (A) (A) (A) (A) (A) (A) (A) (A) (A) (A) (A)
                 (A) (A) (A) (A) (A) (A) (A) (A) (A) (A) (A) (A)
                 (A) (A) (A) (A) (A) (A) (A) (A) (A) (A) (A) (A)
                 (A) (A) (A) (A) (A) (A) (A) (A) (A) (A) (A) (A)
                 (A) (A) (A) (A) (A) (A) (A) (A) (A) (A) (A) (A)
                 (A) (A) (A) (A) (A) (A) (A) (A) (A) (A) (A) (A)
                 (A) (A) (A) (A) (A) (A) (A) (A) (A) (A) (A) (A)
                 (A) (A) (A) (A) (A) (A) (A) (A) (A) (A) (A) (A)
                 (A) (A) (A) (A) (A) (A) (A) (A) (A) (A) (A) (A)
                 (A) (A) (A) (A) (A) (A) (A) (A) (A) (A) (A) (A)
                 (A) (A) (A) (A) (A) (A) (A) (A) (A) (A) (A) (A)
                 (A) (A) (A) (A) (A) (A) (A) (A) (A) (A) (A) (A)
                 (A) (A) (A) (A) (A) (A) (A) (A) (A) (A) (A) (A)
                 (A) (A) (A) (A) (A) (A) (A) (A) (A) (A) (A) (A)
                 (A) (A) (A) (A) (A) (A) (A) (A) (A) (A) (A) (A)
                 (A) (A) (A) (A) (A) (A) (A) (A) (A) (A) (A) (A)
                 (A) (A) (A) (A) (A) (A) (A) (A) (A) (A) (A) (A)
                 (A) (A) (A) (A) (A) (A) (A) (A) (A) (A) (A) (A)
                 (A) (A) (A) (A) (A) (A) (A) (A) (A) (A) (A) (A)
                 (A) (A) (A) (A) (A) (A) (A) (A) (A) (A) (A) (A)
                 (A) (A) (A) (A) (A) (A) (A) (A) (A) (A) (A) (A)
                 (A) (A) (A) (A) (A) (A) (A) (A) (A) (A) (A) (A)
                 (A) (A) (A) (A) (A) (A) (A) (A) (A) (A) (A) (A)
                 (A) (A) (A) (A) (A) (A) (A) (A) (A) (A) (A) (A)
                 (A) (A) (A) (A) (A) (A) (A) (A) (A) (A) (A) (A)
                 (A) (A) (A) (A) (A) (A) (A) (A) (A) (A) (A) (A)
                 (A) (A) (A) (A) (A) (A) (A) (A) (A) (A) (A) (A)
                 (A) (A) (A) (A) (A) (A) (A) (A) (A) (A) (A) (A)
                 (A) (A) (A) (A) (A) (A) (A) (A) (A) (A) (A) (A)
                 (A) (A) (A) (A) (A) (A) (A) (A) (A) (A) (A) (A)
                 (A) (A) (A) (A) (A) (A) (A) (A) (A) (A) (A) (A)
                 (A) (A) (A) (A) (A) (A) (A) (A) (A) (A) (A) (A)
                 (A) (A) (A) (A) (A) (A) (A) (A) (A) (A) (A) (A)
                 (A) (A) (A) (A) (A) (A) (A) (A) (A) (A) (A) (A)
                 (A) (A) (A) (A) (A) (A) (A) (A) (A) (A) (A) (A)
                 (A) (A) (A) (A) (A) (A) (A) (A) (A) (A) (A) (A)
                 (A) (A) (A) (A) (A) (A) (A) (A) (A) (A) (A) (A)
                 (A) (A) (A) (A) (A) (A) (A) (A) (A) (A) (A) (A)
                 (A) (A) (A) (A) (A) (A) (A) (A) (A) (A) (A) (A)
                 (A) (A) (A) (A) (A) (A) (A) (A) (A) (A) (A) (A)
                 (A) (A) (A) (A) (A) (A) (A) (A) (A) (A) (A) (A)
                 (A) (A) (A) (A) (A) (A) (A) (A) (A) (A) (A) (A)
                 (A) (A) (A) (A) (A) (A) (A) (A) (A) (A) (A) (A)
                 (A) (A) (A) (A) (A) (A) (A) (A) (A) (A) (A) (A)
                 (A) (A) (A) (A) (A) (A) (A) (A) (A) (A) (A) (A)
                 (A) (A) (A) (A) (A) (A) (A) (A) (A) (A) (A) (A)
                 (A) (A) (A) (A) (A) (A) (A) (A) (A) (A) (A) (A)
                 (A) (A) (A) (A) (A) (A) (A) (A) (A) (A) (A) (A)
                 (A) (A) (A) (A) (A) (A) (A) (A) (A) (A) (A) (A)
                 (A) (A) (A) (A) (A) (A) (A) (A) (A) (A) (A) (A)
                 (A) (A) (A) (A) (A) (A) (A) (A) (A) (A) (A) (A)
                 (A) (A) (A) (A) (A) (A) (A) (A)
   200 initial guesses have been made.
 Convergence on wavefunction:    0.001000000000000
 Iteration     1 Dimension   200 NMult   200
 CISAX will form    16 AO SS matrices at one time.
 New state      6 was old state      7
 New state      7 was old state      6
 New state      8 was old state     11
 New state      9 was old state      8
 New state     10 was old state      9
 New state     11 was old state     12
 New state     12 was old state     10
 New state     14 was old state     18
 New state     17 was old state     20
 New state     18 was old state     21
 New state     19 was old state     14
 New state     20 was old state     19
 New state     21 was old state     24
 New state     22 was old state     23
 New state     23 was old state     26
 New state     24 was old state     27
 New state     25 was old state     30
 New state     26 was old state     22
 New state     27 was old state     29
 New state     28 was old state     33
 New state     29 was old state     25
 New state     30 was old state     31
 New state     31 was old state     40
 New state     32 was old state     41
 New state     33 was old state     35
 New state     34 was old state     45
 New state     35 was old state     38
 New state     36 was old state     37
 New state     37 was old state     32
 New state     38 was old state     42
 New state     39 was old state     44
 New state     40 was old state     17
 New state     41 was old state     34
 New state     42 was old state     47
 New state     43 was old state     50
 New state     44 was old state     43
 New state     45 was old state     48
 No map to state     46
 New state     47 was old state     49
 New state     48 was old state     46
 New state     49 was old state     36
 No map to state     50
 Iteration     2 Dimension   300 NMult   300
 New state      8 was old state      9
 New state      9 was old state     10
 New state     10 was old state      8
 New state     14 was old state     15
 New state     15 was old state     14
 New state     17 was old state     18
 New state     18 was old state     17
 New state     20 was old state     23
 New state     21 was old state     22
 New state     22 was old state     20
 New state     23 was old state     21
 New state     25 was old state     26
 New state     26 was old state     25
 New state     27 was old state     39
 New state     28 was old state     27
 New state     29 was old state     37
 New state     30 was old state     28
 New state     31 was old state     29
 New state     32 was old state     30
 New state     34 was old state     31
 New state     35 was old state     32
 New state     36 was old state     35
 New state     37 was old state     34
 New state     38 was old state     43
 New state     39 was old state     36
 New state     40 was old state     41
 New state     41 was old state     38
 New state     42 was old state     47
 New state     43 was old state     40
 New state     44 was old state     42
 New state     46 was old state     44
 New state     47 was old state     50
 New state     48 was old state     46
 New state     49 was old state     48
 No map to state     50
 Iteration     3 Dimension   400 NMult   400
 New state     30 was old state     31
 New state     31 was old state     30
 Iteration     4 Dimension   494 NMult   494
 Iteration     5 Dimension   530 NMult   530
 DiagDN has N=   530 LTot=  1622 but NE2=   264 cannot use DSYEVD.
 DiagDN has N=   530 LTot=  1622 but NE2=   264 cannot use DSYEVD.
 ***********************************************************************
 Excited states from <AA,BB:AA,BB> singles matrix:
 ***********************************************************************
 
 Ground to excited state transition electric dipole moments (Au):
       state          X           Y           Z        Dip. S.      Osc.
         1         3.9541      0.0000      0.0336     15.6358      1.2036
         2        -0.0658      0.0000     -0.0583      0.0077      0.0007
         3         0.0000     -0.4086      0.0000      0.1670      0.0166
         4         0.2223      0.0000      0.0155      0.0496      0.0051
         5         0.0000     -0.6560      0.0000      0.4303      0.0457
         6        -0.6040      0.0000     -0.0543      0.3678      0.0403
         7         0.0000     -0.0465      0.0000      0.0022      0.0002
         8         0.0000     -0.8514      0.0000      0.7249      0.0840
         9         0.1188      0.0000      0.0315      0.0151      0.0018
        10         0.0000     -0.0252      0.0000      0.0006      0.0001
        11         0.0001      0.0210      0.0000      0.0004      0.0001
        12         0.1961      0.0000     -0.0259      0.0391      0.0048
        13         0.2444      0.0000     -0.0091      0.0598      0.0075
        14         1.4327      0.0000      0.0056      2.0526      0.2662
        15         0.0001     -0.0478      0.0000      0.0023      0.0003
        16         0.0000     -0.0054      0.0000      0.0000      0.0000
        17         0.0048      0.1975     -0.0012      0.0390      0.0053
        18         0.6580     -0.0016     -0.1546      0.4569      0.0619
        19        -0.8309      0.0000     -0.0450      0.6924      0.0948
        20         0.0000     -1.1647      0.0001      1.3566      0.1864
        21         0.1680      0.0006      0.1138      0.0412      0.0057
        22         0.0000      0.6140      0.0000      0.3770      0.0526
        23         0.0660     -0.0001     -0.0939      0.0132      0.0019
        24         0.0001     -0.0846      0.0000      0.0072      0.0010
        25        -0.0362      0.0001      0.0420      0.0031      0.0004
        26         0.0946      0.0001     -0.2386      0.0659      0.0095
        27         0.0002      0.0074      0.0000      0.0001      0.0000
        28         0.0024     -0.0748      0.0000      0.0056      0.0008
        29         1.4029      0.0001      0.0102      1.9684      0.2891
        30        -1.4667      0.0000     -0.1215      2.1660      0.3212
        31         0.0009     -0.0233      0.0001      0.0005      0.0001
        32        -0.0001     -0.1759      0.0000      0.0309      0.0047
        33        -0.0001      0.2934     -0.0001      0.0861      0.0131
        34        -0.0011     -0.0626      0.0000      0.0039      0.0006
        35        -0.7408      0.0000      0.0087      0.5489      0.0836
        36         0.3885      0.0001      0.1812      0.1838      0.0282
        37         0.2740      0.0002      0.0607      0.0788      0.0121
        38         0.0004     -0.0873      0.0001      0.0076      0.0012
        39         0.2050      0.0000     -0.1410      0.0619      0.0096
        40        -0.3487      0.0000      0.1134      0.1344      0.0208
        41         0.2008      0.0000     -0.1856      0.0748      0.0116
        42         1.3436     -0.0001      0.1229      1.8203      0.2857
        43         0.0002      0.0632      0.0000      0.0040      0.0006
        44         0.0511     -0.0002      0.1100      0.0147      0.0023
        45         0.0000      0.9919      0.0000      0.9839      0.1561
        46         0.0000     -0.0326      0.0000      0.0011      0.0002
        47         0.0001      0.2369      0.0000      0.0561      0.0090
        48        -0.0287      0.0007     -0.0232      0.0014      0.0002
        49         0.0000     -0.0003      0.0000      0.0000      0.0000
        50         0.0000      0.0603      0.0000      0.0036      0.0006
 Ground to excited state transition velocity dipole moments (Au):
       state          X           Y           Z        Dip. S.      Osc.
         1        -0.4567      0.0000     -0.0038      0.2086      1.2042
         2         0.0093      0.0000      0.0091      0.0002      0.0008
         3         0.0000      0.0615      0.0000      0.0038      0.0169
         4        -0.0341      0.0000     -0.0022      0.0012      0.0050
         5         0.0000      0.1079      0.0000      0.0116      0.0487
         6         0.1009      0.0000      0.0092      0.0103      0.0416
         7         0.0000      0.0077      0.0000      0.0001      0.0002
         8         0.0000      0.1503      0.0000      0.0226      0.0867
         9        -0.0224      0.0000     -0.0048      0.0005      0.0020
        10         0.0000      0.0044      0.0000      0.0000      0.0001
        11         0.0000     -0.0036      0.0000      0.0000      0.0000
        12        -0.0362      0.0000      0.0004      0.0013      0.0047
        13        -0.0459      0.0000      0.0029      0.0021      0.0075
        14        -0.2802      0.0000     -0.0010      0.0785      0.2691
        15         0.0000      0.0094      0.0000      0.0001      0.0003
        16         0.0000      0.0019      0.0000      0.0000      0.0000
        17        -0.0010     -0.0384      0.0003      0.0015      0.0048
        18        -0.1336      0.0003      0.0335      0.0190      0.0622
        19         0.1689      0.0000      0.0098      0.0286      0.0929
        20         0.0000      0.2424      0.0000      0.0588      0.1900
        21        -0.0351     -0.0001     -0.0247      0.0018      0.0059
        22         0.0000     -0.1303      0.0000      0.0170      0.0541
        23        -0.0144      0.0000      0.0209      0.0006      0.0020
        24         0.0000      0.0186      0.0000      0.0003      0.0011
        25         0.0064      0.0000     -0.0090      0.0001      0.0004
        26        -0.0199      0.0000      0.0484      0.0027      0.0085
        27         0.0000     -0.0013      0.0000      0.0000      0.0000
        28        -0.0005      0.0154      0.0000      0.0002      0.0007
        29        -0.3098      0.0000     -0.0019      0.0960      0.2904
        30         0.3257      0.0000      0.0271      0.1068      0.3201
        31        -0.0002      0.0058      0.0000      0.0000      0.0001
        32         0.0000      0.0392      0.0000      0.0015      0.0045
        33         0.0000     -0.0698      0.0000      0.0049      0.0143
        34         0.0003      0.0156      0.0000      0.0002      0.0007
        35         0.1698      0.0000     -0.0040      0.0289      0.0843
        36        -0.0891      0.0000     -0.0442      0.0099      0.0287
        37        -0.0635     -0.0001     -0.0162      0.0043      0.0124
        38        -0.0001      0.0219      0.0000      0.0005      0.0014
        39        -0.0456      0.0000      0.0305      0.0030      0.0086
        40         0.0788      0.0000     -0.0271      0.0069      0.0199
        41        -0.0491      0.0000      0.0466      0.0046      0.0131
        42        -0.3192      0.0000     -0.0308      0.1028      0.2912
        43         0.0000     -0.0147      0.0000      0.0002      0.0006
        44        -0.0126      0.0000     -0.0275      0.0009      0.0026
        45         0.0000     -0.2372      0.0000      0.0563      0.1576
        46         0.0000      0.0079      0.0000      0.0001      0.0002
        47         0.0000     -0.0581      0.0000      0.0034      0.0093
        48         0.0087     -0.0002      0.0041      0.0001      0.0003
        49         0.0000      0.0005      0.0000      0.0000      0.0000
        50         0.0000     -0.0149      0.0000      0.0002      0.0006
 Ground to excited state transition magnetic dipole moments (Au):
       state          X           Y           Z
         1         0.0195      0.0001      0.7174
         2         0.1817      0.0000      0.1744
         3         0.0000      0.0536      0.0000
         4         0.0122      0.0000      0.2122
         5         0.0000     -0.1113      0.0000
         6        -0.0513      0.0000      1.2694
         7         0.0000     -0.0318      0.0000
         8         0.0000     -0.0924      0.0000
         9         0.0280     -0.0001     -1.6271
        10         0.0000      0.3683     -0.0002
        11         0.0003      0.2223      0.0001
        12         0.5234     -0.0001     -0.0904
        13        -0.2564      0.0000     -0.0375
        14         0.0277      0.0001      0.5055
        15         0.0000     -0.0411      0.0000
        16         0.0000      0.3112      0.0000
        17        -0.0014     -0.1467      0.0057
        18        -0.1769      0.0011      0.7874
        19        -0.0129      0.0000     -0.9532
        20         0.0000     -0.1385      0.0001
        21        -0.0096      0.0000      0.5369
        22         0.0000      0.0603      0.0001
        23        -0.1264      0.0000      0.1188
        24         0.0000     -0.0411      0.0001
        25        -0.0342      0.0000      1.4812
        26        -0.0426      0.0000      0.1713
        27         0.0000     -0.0895      0.0001
        28         0.0002     -0.4204     -0.0008
        29         0.1004      0.0008     -0.4763
        30        -0.0082      0.0004      2.3361
        31         0.0000      0.5106     -0.0015
        32         0.0000     -0.0904      0.0001
        33         0.0000      0.1252      0.0002
        34        -0.0002      0.2856      0.0027
        35        -0.1581     -0.0003      1.8712
        36        -0.3132      0.0000     -1.3513
        37         0.0519      0.0003     -0.2010
        38         0.0001     -0.1923     -0.0002
        39         0.2184      0.0000     -0.6654
        40        -0.1663      0.0000      0.3911
        41         0.0731      0.0000      0.7627
        42        -0.1704     -0.0001      0.9175
        43        -0.0001      0.4181      0.0000
        44         0.5233      0.0000     -0.0273
        45         0.0001      0.0014      0.0000
        46         0.0000     -0.0705      0.0000
        47         0.0005      0.3205      0.0002
        48        -0.1647      0.0009     -0.0560
        49         0.0000      0.0580      0.0001
        50        -0.0001     -0.4146     -0.0002
 <0|del|b> * <b|rxdel|0> + <0|del|b> * <b|delr+rdel|0>
 Rotatory Strengths (R) in cgs (10**-40 erg-esu-cm/Gauss)
       state          XX          YY          ZZ    R(velocity)
         1       -14.3249    -68.0132     11.2373    -23.7003
 Total R(velocity) tensor for State=          1
                 1             2             3 
      1  -0.143249D+02  0.157779D+00  0.172851D+04
      2   0.701096D-03 -0.680132D+02 -0.309178D-01
      3  -0.931285D-01 -0.755441D-02  0.112373D+02
 R(velocity) tensor in inp. orien. for State=          1
                 1             2             3 
      1  -0.143249D+02  0.157779D+00  0.172851D+04
      2   0.700709D-03 -0.680132D+02 -0.309303D-01
      3  -0.931285D-01 -0.755441D-02  0.112373D+02
         2         4.1273      7.1207      5.3989      5.5490
 Total R(velocity) tensor for State=          2
                 1             2             3 
      1   0.412728D+01  0.156250D-02 -0.422505D+01
      2   0.112429D-02  0.712071D+01  0.431367D-03
      3  -0.527397D+01  0.775567D-04  0.539891D+01
 R(velocity) tensor in inp. orien. for State=          2
                 1             2             3 
      1   0.412728D+01  0.156253D-02 -0.422505D+01
      2   0.112432D-02  0.712071D+01  0.431398D-03
      3  -0.527397D+01  0.775947D-04  0.539891D+01
         3         8.9336      0.0000      6.6992      5.2109
 Total R(velocity) tensor for State=          3
                 1             2             3 
      1   0.893356D+01 -0.215730D-03 -0.226086D+02
      2   0.208321D-03  0.000000D+00  0.105694D-02
      3  -0.138793D+01  0.678074D-04  0.669922D+01
 R(velocity) tensor in inp. orien. for State=          3
                 1             2             3 
      1   0.893356D+01 -0.215795D-03 -0.226086D+02
      2   0.208257D-03  0.000000D+00  0.105711D-02
      3  -0.138793D+01  0.678174D-04  0.669922D+01
         4         0.2847     -4.9028      0.5913     -1.3423
 Total R(velocity) tensor for State=          4
                 1             2             3 
      1   0.284671D+00  0.375752D-02 -0.445402D+01
      2   0.259031D-03 -0.490278D+01  0.320312D-02
      3  -0.377930D-01  0.254579D-03  0.591315D+00
 R(velocity) tensor in inp. orien. for State=          4
                 1             2             3 
      1   0.284671D+00  0.375748D-02 -0.445402D+01
      2   0.258993D-03 -0.490278D+01  0.320315D-02
      3  -0.377930D-01  0.254580D-03  0.591315D+00
         5       -48.9752      0.0000     -4.3054    -17.7602
 Total R(velocity) tensor for State=          5
                 1             2             3 
      1  -0.489752D+02  0.360713D-02  0.436019D+03
      2   0.105463D-02  0.000000D+00 -0.507753D-02
      3   0.393649D+01  0.914445D-04 -0.430542D+01
 R(velocity) tensor in inp. orien. for State=          5
                 1             2             3 
      1  -0.489752D+02  0.360748D-02  0.436019D+03
      2   0.105498D-02  0.000000D+00 -0.508067D-02
      3   0.393649D+01  0.914161D-04 -0.430542D+01
         6        33.4097      5.5536    -11.1732      9.2634
 Total R(velocity) tensor for State=          6
                 1             2             3 
      1   0.334097D+02 -0.999492D-02 -0.367863D+03
      2  -0.303022D-03  0.555357D+01  0.478535D-02
      3   0.101476D+01  0.101667D-02 -0.111732D+02
 R(velocity) tensor in inp. orien. for State=          6
                 1             2             3 
      1   0.334097D+02 -0.999512D-02 -0.367863D+03
      2  -0.303223D-03  0.555357D+01  0.478800D-02
      3   0.101476D+01  0.101667D-02 -0.111732D+02
         7         0.2111      0.0000     -1.2513     -0.3467
 Total R(velocity) tensor for State=          7
                 1             2             3 
      1   0.211058D+00 -0.511221D-02 -0.275401D+02
      2  -0.111163D-03  0.000000D+00 -0.485180D-03
      3   0.922872D-01 -0.161163D-03 -0.125128D+01
 R(velocity) tensor in inp. orien. for State=          7
                 1             2             3 
      1   0.211058D+00 -0.511221D-02 -0.275401D+02
      2  -0.111164D-03  0.000000D+00 -0.484982D-03
      3   0.922872D-01 -0.161163D-03 -0.125128D+01
         8       -17.0266      0.0000    -39.5178    -18.8481
 Total R(velocity) tensor for State=          8
                 1             2             3 
      1  -0.170266D+02 -0.160395D-01 -0.527849D+03
      2   0.477175D-02  0.000000D+00 -0.195408D-02
      3   0.103765D+01 -0.121801D-02 -0.395178D+02
 R(velocity) tensor in inp. orien. for State=          8
                 1             2             3 
      1  -0.170266D+02 -0.160393D-01 -0.527849D+03
      2   0.477188D-02  0.000000D+00 -0.195028D-02
      3   0.103765D+01 -0.121801D-02 -0.395178D+02
         9        23.9818      7.2967     -2.7618      9.5056
 Total R(velocity) tensor for State=          9
                 1             2             3 
      1   0.239818D+02 -0.321981D-02 -0.111448D+03
      2   0.316705D-03  0.729672D+01  0.513295D-02
      3   0.594295D+00 -0.905527D-03 -0.276181D+01
 R(velocity) tensor in inp. orien. for State=          9
                 1             2             3 
      1   0.239818D+02 -0.321993D-02 -0.111448D+03
      2   0.316584D-03  0.729672D+01  0.513375D-02
      3   0.594295D+00 -0.905531D-03 -0.276181D+01
        10         2.3115      0.0000      4.0965      2.1360
 Total R(velocity) tensor for State=         10
                 1             2             3 
      1   0.231146D+01  0.524350D-03  0.106803D+01
      2   0.114581D-03  0.000000D+00  0.931732D-03
      3   0.517222D-01  0.129027D-02  0.409652D+01
 R(velocity) tensor in inp. orien. for State=         10
                 1             2             3 
      1   0.231146D+01  0.524334D-03  0.106803D+01
      2   0.114564D-03  0.000000D+00  0.931725D-03
      3   0.517222D-01  0.129027D-02  0.409652D+01
        11        -2.3659      0.0000     -0.7221     -1.0293
 Total R(velocity) tensor for State=         11
                 1             2             3 
      1  -0.236587D+01  0.120940D-01 -0.146873D+01
      2   0.305827D-02 -0.164986D-04  0.589742D-03
      3   0.784744D-01 -0.910715D-03 -0.722124D+00
 R(velocity) tensor in inp. orien. for State=         11
                 1             2             3 
      1  -0.236587D+01  0.120940D-01 -0.146873D+01
      2   0.305829D-02 -0.164987D-04  0.589753D-03
      3   0.784744D-01 -0.910716D-03 -0.722124D+00
        12        -0.0922    -57.9789    -14.2887    -24.1199
 Total R(velocity) tensor for State=         12
                 1             2             3 
      1  -0.921795D-01 -0.141610D-01 -0.858183D+01
      2  -0.660034D-02 -0.579789D+02  0.193880D-02
      3  -0.153475D+00  0.150547D-02 -0.142887D+02
 R(velocity) tensor in inp. orien. for State=         12
                 1             2             3 
      1  -0.921795D-01 -0.141614D-01 -0.858183D+01
      2  -0.660075D-02 -0.579789D+02  0.193886D-02
      3  -0.153475D+00  0.150547D-02 -0.142887D+02
        13         0.4349     18.7986     24.6420     14.6252
 Total R(velocity) tensor for State=         13
                 1             2             3 
      1   0.434895D+00 -0.848316D-04  0.685184D+01
      2  -0.346171D-02  0.187986D+02 -0.214196D-02
      3   0.156406D+01  0.450652D-03  0.246420D+02
 R(velocity) tensor in inp. orien. for State=         13
                 1             2             3 
      1   0.434895D+00 -0.846993D-04  0.685184D+01
      2  -0.346158D-02  0.187986D+02 -0.214201D-02
      3   0.156406D+01  0.450641D-03  0.246420D+02
        14        -2.1811    -24.4639     -3.4976    -10.0475
 Total R(velocity) tensor for State=         14
                 1             2             3 
      1  -0.218111D+01  0.601839D-01  0.589129D+03
      2  -0.269778D-03 -0.244639D+02 -0.635652D-04
      3   0.129490D-01 -0.161673D-02 -0.349759D+01
 R(velocity) tensor in inp. orien. for State=         14
                 1             2             3 
      1  -0.218111D+01  0.601838D-01  0.589129D+03
      2  -0.269938D-03 -0.244639D+02 -0.678093D-04
      3   0.129490D-01 -0.161673D-02 -0.349759D+01
        15        -1.2751      0.0000     -0.1046     -0.4599
 Total R(velocity) tensor for State=         15
                 1             2             3 
      1  -0.127514D+01 -0.325720D-02  0.480146D+00
      2   0.216569D-03  0.000000D+00 -0.121128D-02
      3  -0.210686D+00 -0.523080D-03 -0.104618D+00
 R(velocity) tensor in inp. orien. for State=         15
                 1             2             3 
      1  -0.127514D+01 -0.325719D-02  0.480146D+00
      2   0.216578D-03  0.000000D+00 -0.121129D-02
      3  -0.210686D+00 -0.523079D-03 -0.104618D+00
        16         1.6829      0.0000      0.3657      0.6829
 Total R(velocity) tensor for State=         16
                 1             2             3 
      1   0.168293D+01  0.647241D-02  0.222247D+00
      2   0.393400D-02  0.000000D+00  0.351146D-02
      3  -0.115047D+00 -0.237944D-02  0.365730D+00
 R(velocity) tensor in inp. orien. for State=         16
                 1             2             3 
      1   0.168293D+01  0.647239D-02  0.222247D+00
      2   0.393399D-02  0.000000D+00  0.351146D-02
      3  -0.115047D+00 -0.237944D-02  0.365730D+00
        17        19.0771      0.0021      0.5435      6.5409
 Total R(velocity) tensor for State=         17
                 1             2             3 
      1   0.190771D+02 -0.645164D+00 -0.230297D+02
      2  -0.743626D-01  0.210057D-02  0.299868D-01
      3  -0.101616D+01  0.296308D-01  0.543490D+00
 R(velocity) tensor in inp. orien. for State=         17
                 1             2             3 
      1   0.190771D+02 -0.645164D+00 -0.230297D+02
      2  -0.743628D-01  0.210058D-02  0.299869D-01
      3  -0.101616D+01  0.296308D-01  0.543490D+00
        18       111.2445     36.3842     26.5127     58.0471
 Total R(velocity) tensor for State=         18
                 1             2             3 
      1   0.111245D+03  0.658286D+00  0.443556D+03
      2   0.785854D-01  0.363842D+02 -0.202247D-01
      3   0.664927D+01 -0.295404D-01  0.265127D+02
 R(velocity) tensor in inp. orien. for State=         18
                 1             2             3 
      1   0.111245D+03  0.658285D+00  0.443556D+03
      2   0.785849D-01  0.363842D+02 -0.202279D-01
      3   0.664927D+01 -0.295404D-01  0.265127D+02
        19       -38.5248     -8.4451      7.3000    -13.2233
 Total R(velocity) tensor for State=         19
                 1             2             3 
      1  -0.385248D+02  0.683645D-02  0.663930D+03
      2  -0.586514D-03 -0.844511D+01  0.370097D-02
      3  -0.423588D+00 -0.806385D-03  0.730004D+01
 R(velocity) tensor in inp. orien. for State=         19
                 1             2             3 
      1  -0.385248D+02  0.683667D-02  0.663930D+03
      2  -0.586297D-03 -0.844511D+01  0.369619D-02
      3  -0.423588D+00 -0.806382D-03  0.730004D+01
        20       -58.0937      0.0000    -57.1024    -38.3987
 Total R(velocity) tensor for State=         20
                 1             2             3 
      1  -0.580937D+02 -0.171320D+00 -0.171113D+04
      2  -0.675580D-02  0.745823D-05  0.733457D-01
      3  -0.267678D+02 -0.540898D-02 -0.571024D+02
 R(velocity) tensor in inp. orien. for State=         20
                 1             2             3 
      1  -0.580937D+02 -0.171320D+00 -0.171113D+04
      2  -0.675538D-02  0.745951D-05  0.733580D-01
      3  -0.267678D+02 -0.540878D-02 -0.571024D+02
        21       -60.3809     16.1035      0.1463    -14.7103
 Total R(velocity) tensor for State=         21
                 1             2             3 
      1  -0.603809D+02  0.839122D-01  0.859960D+02
      2  -0.109471D-01  0.161035D+02 -0.674974D-01
      3  -0.102756D+00  0.395016D-02  0.146328D+00
 R(velocity) tensor in inp. orien. for State=         21
                 1             2             3 
      1  -0.603809D+02  0.839128D-01  0.859960D+02
      2  -0.109466D-01  0.161035D+02 -0.674980D-01
      3  -0.102756D+00  0.395016D-02  0.146328D+00
        22       -25.7911      0.0000     -0.7676     -8.8529
 Total R(velocity) tensor for State=         22
                 1             2             3 
      1  -0.257911D+02 -0.281803D-02 -0.734366D+02
      2   0.934502D-02  0.000000D+00  0.131725D-01
      3  -0.392569D+01  0.355537D-04 -0.767577D+00
 R(velocity) tensor in inp. orien. for State=         22
                 1             2             3 
      1  -0.257911D+02 -0.281785D-02 -0.734366D+02
      2   0.934521D-02  0.000000D+00  0.131730D-01
      3  -0.392569D+01  0.355820D-04 -0.767577D+00
        23         0.0458     12.4736      1.9440      4.8211
 Total R(velocity) tensor for State=         23
                 1             2             3 
      1   0.457552D-01  0.139041D-01  0.314290D-01
      2   0.674360D-02  0.124736D+02 -0.143054D-01
      3   0.282819D+01  0.730803D-03  0.194397D+01
 R(velocity) tensor in inp. orien. for State=         23
                 1             2             3 
      1   0.457552D-01  0.139042D-01  0.314290D-01
      2   0.674369D-02  0.124736D+02 -0.143054D-01
      3   0.282819D+01  0.730782D-03  0.194397D+01
        24        -2.6575      0.0000      0.1105     -0.8490
 Total R(velocity) tensor for State=         24
                 1             2             3 
      1  -0.265745D+01 -0.387776D-03  0.103836D+02
      2   0.641397D-03  0.000000D+00  0.358598D-03
      3  -0.118440D+01 -0.869967D-03  0.110531D+00
 R(velocity) tensor in inp. orien. for State=         24
                 1             2             3 
      1  -0.265745D+01 -0.387757D-03  0.103836D+02
      2   0.641416D-03  0.000000D+00  0.358524D-03
      3  -0.118440D+01 -0.869959D-03  0.110531D+00
        25       -38.9084     -5.2473     -0.2410    -14.7989
 Total R(velocity) tensor for State=         25
                 1             2             3 
      1  -0.389084D+02  0.155483D-02 -0.279080D+02
      2  -0.213791D-02 -0.524729D+01  0.518767D-02
      3  -0.335990D+00  0.625032D-05 -0.240997D+00
 R(velocity) tensor in inp. orien. for State=         25
                 1             2             3 
      1  -0.389084D+02  0.155507D-02 -0.279080D+02
      2  -0.213766D-02 -0.524729D+01  0.518787D-02
      3  -0.335990D+00  0.625274D-05 -0.240997D+00
        26        26.5907      5.2142     -1.8249      9.9933
 Total R(velocity) tensor for State=         26
                 1             2             3 
      1   0.265907D+02 -0.183605D-01  0.109412D+02
      2   0.349470D-03  0.521419D+01  0.190586D-02
      3  -0.443511D+01 -0.207868D-03 -0.182489D+01
 R(velocity) tensor in inp. orien. for State=         26
                 1             2             3 
      1   0.265907D+02 -0.183607D-01  0.109412D+02
      2   0.349316D-03  0.521419D+01  0.190578D-02
      3  -0.443511D+01 -0.207836D-03 -0.182489D+01
        27         0.3235      0.0000      0.0691      0.1309
 Total R(velocity) tensor for State=         27
                 1             2             3 
      1   0.323491D+00 -0.265260D-01  0.356561D+01
      2   0.706634D-02  0.000000D+00 -0.382562D-01
      3   0.114793D+00 -0.344898D-02  0.691279D-01
 R(velocity) tensor in inp. orien. for State=         27
                 1             2             3 
      1   0.323491D+00 -0.265260D-01  0.356561D+01
      2   0.706634D-02  0.000000D+00 -0.382562D-01
      3   0.114793D+00 -0.344898D-02  0.691279D-01
        28       -21.0580     -0.0003      0.2897     -6.9228
 Total R(velocity) tensor for State=         28
                 1             2             3 
      1  -0.210580D+02 -0.735537D+00 -0.686320D+01
      2  -0.101698D-01 -0.273671D-03  0.292734D+00
      3  -0.183946D+01 -0.640058D-01  0.289738D+00
 R(velocity) tensor in inp. orien. for State=         28
                 1             2             3 
      1  -0.210580D+02 -0.735537D+00 -0.686320D+01
      2  -0.101697D-01 -0.273666D-03  0.292734D+00
      3  -0.183946D+01 -0.640058D-01  0.289738D+00
        29         0.5167    -98.2797      0.8201    -32.3143
 Total R(velocity) tensor for State=         29
                 1             2             3 
      1   0.516749D+00  0.778657D+00 -0.832215D+02
      2   0.858534D-02 -0.982797D+02 -0.242656D+00
      3  -0.509748D-02  0.636791D-01  0.820112D+00
 R(velocity) tensor in inp. orien. for State=         29
                 1             2             3 
      1   0.516749D+00  0.778657D+00 -0.832215D+02
      2   0.858463D-02 -0.982797D+02 -0.242655D+00
      3  -0.509748D-02  0.636791D-01  0.820112D+00
        30       131.4214     90.5039    -29.3486     64.1922
 Total R(velocity) tensor for State=         30
                 1             2             3 
      1   0.131421D+03 -0.361509D+00 -0.158076D+04
      2  -0.371116D-02  0.905039D+02  0.285838D-01
      3   0.243999D+01 -0.215875D-01 -0.293486D+02
 R(velocity) tensor in inp. orien. for State=         30
                 1             2             3 
      1   0.131421D+03 -0.361510D+00 -0.158076D+04
      2  -0.371146D-02  0.905039D+02  0.285952D-01
      3   0.243999D+01 -0.215876D-01 -0.293486D+02
        31         9.2090      0.0000      0.1975      3.1355
 Total R(velocity) tensor for State=         31
                 1             2             3 
      1   0.920898D+01  0.312591D+00 -0.155416D+00
      2   0.455925D-02  0.441740D-04 -0.287666D-01
      3   0.631442D+00  0.222361D-01  0.197512D+00
 R(velocity) tensor in inp. orien. for State=         31
                 1             2             3 
      1   0.920898D+01  0.312591D+00 -0.155416D+00
      2   0.455918D-02  0.441717D-04 -0.287666D-01
      3   0.631442D+00  0.222361D-01  0.197512D+00
        32        -9.0492      0.0000     -2.0555     -3.7016
 Total R(velocity) tensor for State=         32
                 1             2             3 
      1  -0.904918D+01  0.731849D-02 -0.309116D+02
      2   0.427094D-03  0.000000D+00 -0.483131D-02
      3   0.308736D+00  0.158039D-03 -0.205550D+01
 R(velocity) tensor in inp. orien. for State=         32
                 1             2             3 
      1  -0.904918D+01  0.731856D-02 -0.309116D+02
      2   0.427159D-03  0.000000D+00 -0.483108D-02
      3   0.308736D+00  0.158037D-03 -0.205550D+01
        33       -27.8408      0.0000      0.6656     -9.0584
 Total R(velocity) tensor for State=         33
                 1             2             3 
      1  -0.278408D+02 -0.112174D-01 -0.639025D+01
      2   0.258306D-02  0.221796D-05  0.758376D-02
      3   0.942688D+01  0.354594D-02  0.665587D+00
 R(velocity) tensor in inp. orien. for State=         33
                 1             2             3 
      1  -0.278408D+02 -0.112172D-01 -0.639025D+01
      2   0.258326D-02  0.221803D-05  0.758381D-02
      3   0.942688D+01  0.354588D-02  0.665587D+00
        34        11.6421     -0.0001      2.2074      4.6165
 Total R(velocity) tensor for State=         34
                 1             2             3 
      1   0.116421D+02 -0.197216D+00  0.449607D+02
      2   0.425603D-02 -0.753524D-04  0.458474D-01
      3   0.150944D+01 -0.251687D-01  0.220742D+01
 R(velocity) tensor in inp. orien. for State=         34
                 1             2             3 
      1   0.116421D+02 -0.197216D+00  0.449607D+02
      2   0.425594D-02 -0.753510D-04  0.458471D-01
      3   0.150944D+01 -0.251687D-01  0.220742D+01
        35       -17.3193    -54.7194    -34.4590    -35.4992
 Total R(velocity) tensor for State=         35
                 1             2             3 
      1  -0.173193D+02  0.125183D+00 -0.730317D+03
      2  -0.431324D-02 -0.547194D+02 -0.587736D-01
      3  -0.817187D+00  0.229340D-01 -0.344590D+02
 R(velocity) tensor in inp. orien. for State=         35
                 1             2             3 
      1  -0.173193D+02  0.125183D+00 -0.730317D+03
      2  -0.431351D-02 -0.547194D+02 -0.587684D-01
      3  -0.817187D+00  0.229340D-01 -0.344590D+02
        36       154.0553     96.5227     19.1719     89.9166
 Total R(velocity) tensor for State=         36
                 1             2             3 
      1   0.154055D+03  0.322966D-01 -0.310556D+03
      2  -0.640754D-02  0.965227D+02 -0.140386D-01
      3  -0.951046D+01 -0.172061D-02  0.191719D+02
 R(velocity) tensor in inp. orien. for State=         36
                 1             2             3 
      1   0.154055D+03  0.322962D-01 -0.310556D+03
      2  -0.640795D-02  0.965227D+02 -0.140364D-01
      3  -0.951046D+01 -0.172054D-02  0.191719D+02
        37         7.0375     -0.5173     -6.6281     -0.0360
 Total R(velocity) tensor for State=         37
                 1             2             3 
      1   0.703747D+01 -0.205320D+00 -0.275252D+02
      2  -0.311915D-01 -0.517323D+00  0.123628D+00
      3   0.169460D+01 -0.591994D-02 -0.662811D+01
 R(velocity) tensor in inp. orien. for State=         37
                 1             2             3 
      1   0.703747D+01 -0.205321D+00 -0.275252D+02
      2  -0.311915D-01 -0.517323D+00  0.123628D+00
      3   0.169460D+01 -0.591995D-02 -0.662811D+01
        38       -18.9134      0.0000      5.9669     -4.3155
 Total R(velocity) tensor for State=         38
                 1             2             3 
      1  -0.189134D+02  0.216939D+00  0.250252D+03
      2   0.337666D-01  0.442431D-05 -0.114474D+00
      3  -0.256332D+00  0.597589D-02  0.596687D+01
 R(velocity) tensor in inp. orien. for State=         38
                 1             2             3 
      1  -0.189134D+02  0.216940D+00  0.250252D+03
      2   0.337667D-01  0.442250D-05 -0.114476D+00
      3  -0.256332D+00  0.597589D-02  0.596687D+01
        39       -35.8308    -45.4354    -10.8995    -30.7219
 Total R(velocity) tensor for State=         39
                 1             2             3 
      1  -0.358308D+02  0.696799D-02 -0.536218D+02
      2  -0.528482D-02 -0.454354D+02  0.575383D-02
      3  -0.728321D+01  0.769037D-03 -0.108995D+02
 R(velocity) tensor in inp. orien. for State=         39
                 1             2             3 
      1  -0.358308D+02  0.696792D-02 -0.536218D+02
      2  -0.528489D-02 -0.454354D+02  0.575422D-02
      3  -0.728321D+01  0.769090D-03 -0.108995D+02
        40       -17.0778    -65.2668     10.1778    -24.0556
 Total R(velocity) tensor for State=         40
                 1             2             3 
      1  -0.170778D+02  0.255694D-02 -0.496822D+02
      2  -0.248267D-02 -0.652668D+02  0.155850D-02
      3   0.349850D+01  0.409189D-03  0.101778D+02
 R(velocity) tensor in inp. orien. for State=         40
                 1             2             3 
      1  -0.170778D+02  0.255659D-02 -0.496822D+02
      2  -0.248301D-02 -0.652668D+02  0.155885D-02
      3   0.349850D+01  0.409163D-03  0.101778D+02
        41       120.3049    -30.7510      7.1725     32.2421
 Total R(velocity) tensor for State=         41
                 1             2             3 
      1   0.120305D+03 -0.154539D-01  0.126787D+03
      2  -0.652033D-02 -0.307510D+02 -0.146843D-02
      3   0.680579D+01 -0.315774D-03  0.717250D+01
 R(velocity) tensor in inp. orien. for State=         41
                 1             2             3 
      1   0.120305D+03 -0.154550D-01  0.126787D+03
      2  -0.652141D-02 -0.307510D+02 -0.146934D-02
      3   0.680579D+01 -0.315824D-03  0.717250D+01
        42      -154.0839    185.6203     47.0509     26.1958
 Total R(velocity) tensor for State=         42
                 1             2             3 
      1  -0.154084D+03 -0.301874D-01  0.159813D+04
      2   0.485601D-02  0.185620D+03  0.246387D-01
      3  -0.453642D+01 -0.203078D-01  0.470509D+02
 R(velocity) tensor in inp. orien. for State=         42
                 1             2             3 
      1  -0.154084D+03 -0.301850D-01  0.159813D+04
      2   0.485845D-02  0.185620D+03  0.246272D-01
      3  -0.453642D+01 -0.203077D-01  0.470509D+02
        43       -11.6053      0.0000     -6.8054     -6.1369
 Total R(velocity) tensor for State=         43
                 1             2             3 
      1  -0.116053D+02  0.354562D-01 -0.469378D+01
      2  -0.367027D-02  0.126403D-04 -0.470256D-02
      3  -0.167950D+00  0.350077D-02 -0.680545D+01
 R(velocity) tensor in inp. orien. for State=         43
                 1             2             3 
      1  -0.116053D+02  0.354563D-01 -0.469378D+01
      2  -0.367019D-02  0.126401D-04 -0.470253D-02
      3  -0.167950D+00  0.350077D-02 -0.680545D+01
        44        -1.4346     -8.0064     -7.9615     -5.8008
 Total R(velocity) tensor for State=         44
                 1             2             3 
      1  -0.143456D+01 -0.570452D-02  0.656551D+00
      2  -0.291739D-01 -0.800640D+01  0.273364D-02
      3   0.173956D+02  0.844866D-03 -0.796147D+01
 R(velocity) tensor in inp. orien. for State=         44
                 1             2             3 
      1  -0.143456D+01 -0.570457D-02  0.656551D+00
      2  -0.291739D-01 -0.800640D+01  0.273364D-02
      3   0.173956D+02  0.844741D-03 -0.796147D+01
        45         9.7323      0.0000    -10.7422     -0.3366
 Total R(velocity) tensor for State=         45
                 1             2             3 
      1   0.973230D+01  0.101559D-02 -0.459321D+03
      2   0.586626D-02  0.000000D+00 -0.266260D-01
      3  -0.557806D+01  0.325341D-03 -0.107422D+02
 R(velocity) tensor in inp. orien. for State=         45
                 1             2             3 
      1   0.973230D+01  0.101552D-02 -0.459321D+03
      2   0.586619D-02  0.000000D+00 -0.266227D-01
      3  -0.557806D+01  0.325381D-03 -0.107422D+02
        46        -2.1311      0.0000      0.4916     -0.5465
 Total R(velocity) tensor for State=         46
                 1             2             3 
      1  -0.213107D+01 -0.285853D-02 -0.213913D+01
      2  -0.455113D-03  0.000000D+00  0.312127D-02
      3   0.125318D+01  0.156318D-02  0.491602D+00
 R(velocity) tensor in inp. orien. for State=         46
                 1             2             3 
      1  -0.213107D+01 -0.285851D-02 -0.213913D+01
      2  -0.455097D-03  0.000000D+00  0.312129D-02
      3   0.125318D+01  0.156317D-02  0.491602D+00
        47       -59.1184      0.0000      4.6555    -18.1543
 Total R(velocity) tensor for State=         47
                 1             2             3 
      1  -0.591184D+02  0.240886D-01 -0.237436D+02
      2   0.569916D-01 -0.312485D-04  0.817364D-01
      3  -0.104394D+02  0.304682D-02  0.465545D+01
 R(velocity) tensor in inp. orien. for State=         47
                 1             2             3 
      1  -0.591184D+02  0.240890D-01 -0.237436D+02
      2   0.569920D-01 -0.312491D-04  0.817366D-01
      3  -0.104394D+02  0.304689D-02  0.465545D+01
        48         1.1916     -4.8845     -1.1498     -1.6143
 Total R(velocity) tensor for State=         48
                 1             2             3 
      1   0.119158D+01 -0.327853D-01 -0.251355D+01
      2  -0.632049D-01 -0.488454D+01 -0.781401D-01
      3   0.545338D+00 -0.339942D-02 -0.114985D+01
 R(velocity) tensor in inp. orien. for State=         48
                 1             2             3 
      1   0.119158D+01 -0.327853D-01 -0.251355D+01
      2  -0.632049D-01 -0.488454D+01 -0.781401D-01
      3   0.545338D+00 -0.339943D-02 -0.114985D+01
        49         0.0589      0.0000      0.0219      0.0269
 Total R(velocity) tensor for State=         49
                 1             2             3 
      1   0.589347D-01  0.486671D-02  0.420288D+00
      2  -0.244973D-02  0.000000D+00 -0.405582D-02
      3  -0.594264D-01  0.182526D-02  0.218849D-01
 R(velocity) tensor in inp. orien. for State=         49
[...]
    23  C    0.000071  -0.000067  -0.000156  -0.005822  -0.001437   0.006144
    24  H    0.000006   0.000720  -0.002088  -0.002468   0.000006   0.000720
    25  H   -0.038000   0.033273  -0.007680  -0.000007   0.000000   0.000000
    26  H    0.431520  -0.061820   0.007971   0.000000   0.000000   0.000000
    27  H   -0.070457   0.417994  -0.014259   0.000000   0.000000   0.000000
    28  H    0.012790  -0.021879   0.438277   0.000000   0.000000   0.000000
    29  H    0.000000   0.000000   0.000001   0.349972  -0.038001   0.033273
    30  H    0.000000   0.000000   0.000000  -0.020774   0.431518  -0.061820
    31  H    0.000000   0.000000   0.000000   0.006810  -0.070455   0.417990
    32  H    0.000000   0.000000   0.000000   0.005154   0.012790  -0.021883
    33  H   -0.000321   0.002166   0.007028   0.000125   0.000004  -0.000017
    34  H    0.001409   0.015295   0.019707  -0.000004   0.000000   0.000001
    35  H    0.000946   0.004390   0.019097  -0.000005   0.000000   0.000000
    36  H    0.000184  -0.000656   0.001055  -0.000016  -0.000001   0.000004
    37  H   -0.000157  -0.000561  -0.006637   0.000001   0.000000  -0.000001
    38  H    0.000004  -0.000017  -0.000147  -0.002380  -0.000322   0.002168
    39  H    0.000000   0.000001  -0.000002  -0.002082   0.001410   0.015286
    40  H    0.000000   0.000000   0.000001   0.001709   0.000946   0.004395
    41  H   -0.000001   0.000004  -0.000001   0.000832   0.000184  -0.000657
    42  H    0.000000  -0.000001  -0.000002  -0.000255  -0.000157  -0.000562
             19         20         21         22         23         24
     1  C    0.014515  -0.245795  -0.001634  -0.055458   0.017541  -0.006742
     2  C   -0.017235  -0.011435   0.036981  -0.011461   0.036981   0.352567
     3  C   -0.177224  -0.055487   0.017550  -0.245761  -0.001647  -0.006733
     4  N   -0.184039   0.001168   0.002243   0.202705   0.031449  -0.015885
     5  S   -0.009498   0.026604  -0.073293   0.013341   0.020099   0.024644
     6  C   -0.000677   0.043325  -0.011578  -0.005609   0.003852  -0.008700
     7  C    0.000799   0.058365  -0.100379  -0.012150   0.003113  -0.005055
     8  N   -0.000016   0.202778   0.031449   0.001179   0.002239  -0.015887
     9  S    0.032723   0.013365   0.020098   0.026589  -0.073284   0.024653
    10  C   -0.041256  -0.005617   0.003856   0.043292  -0.011566  -0.008705
    11  C   -0.231094  -0.012160   0.003117   0.058401  -0.100401  -0.005055
    12  C   -0.000530   0.047690  -0.005828  -0.001529   0.001064  -0.002467
    13  C   -0.000052  -0.002902  -0.001436  -0.000010   0.000071   0.000006
    14  C    0.000063  -0.073974   0.006130   0.000254  -0.000067   0.000720
    15  C   -0.000256  -0.045028   0.020945   0.002302  -0.000156  -0.002088
    16  C    0.328761  -0.001531   0.001065   0.047696  -0.005822  -0.002468
    17  C    0.099011  -0.000010   0.000071  -0.002891  -0.001437   0.000006
    18  C    0.392001   0.000255  -0.000067  -0.074004   0.006144   0.000720
    19  C    5.674725   0.002303  -0.000157  -0.045036   0.020964  -0.002090
    20  C    0.002303   5.627464  -0.015592  -0.013940   0.002162   0.002344
    21  C   -0.000157  -0.015592   5.333168   0.002162  -0.001436  -0.007810
    22  C   -0.045036  -0.013940   0.002162   5.627541  -0.015568   0.002326
    23  C    0.020964   0.002162  -0.001436  -0.015568   5.333132  -0.007807
    24  H   -0.002090   0.002344  -0.007810   0.002326  -0.007807   0.523230
    25  H    0.000001  -0.000028   0.000133  -0.000002   0.000000   0.000002
    26  H    0.000000   0.000037   0.000027   0.000000   0.000000   0.000000
    27  H    0.000000   0.000662  -0.000013   0.000000   0.000000   0.000000
    28  H    0.000000   0.000072  -0.002324  -0.000002   0.000001  -0.000020
    29  H   -0.007681  -0.000002   0.000000  -0.000028   0.000133   0.000002
    30  H    0.007972   0.000000   0.000000   0.000037   0.000027   0.000000
    31  H   -0.014256   0.000000   0.000000   0.000662  -0.000013   0.000000
    32  H    0.438280  -0.000002   0.000001   0.000072  -0.002324  -0.000020
    33  H   -0.000147   0.389707  -0.022933   0.006259  -0.003385  -0.000244
    34  H   -0.000002   0.398375  -0.035443   0.000340  -0.000131   0.000510
    35  H    0.000001  -0.049440   0.427433   0.000228  -0.000094   0.000163
    36  H   -0.000001  -0.038645   0.417163  -0.002883   0.001000  -0.000657
    37  H   -0.000002  -0.030749   0.403060   0.000013  -0.000159   0.000183
    38  H    0.007030   0.006260  -0.003386   0.389706  -0.022934  -0.000243
    39  H    0.019711   0.000340  -0.000131   0.398367  -0.035442   0.000511
    40  H    0.019104   0.000228  -0.000094  -0.049441   0.427436   0.000163
    41  H    0.001055  -0.002882   0.000999  -0.038647   0.417164  -0.000657
    42  H   -0.006637   0.000013  -0.000159  -0.030746   0.403057   0.000183
             25         26         27         28         29         30
     1  C    0.005426  -0.000252  -0.002045   0.012684  -0.001033   0.000008
     2  C    0.000919   0.000069  -0.000114   0.000593   0.000920   0.000069
     3  C   -0.001033   0.000008  -0.000005   0.000271   0.005426  -0.000252
     4  N   -0.000002   0.000000   0.000000   0.000000   0.002266   0.000644
     5  S   -0.006492   0.000604  -0.000586  -0.002952   0.000798   0.000020
     6  C   -0.009755  -0.021223   0.010552  -0.003982   0.000087   0.000000
     7  C    0.009034   0.011702  -0.001691  -0.088175   0.000002   0.000000
     8  N    0.002266   0.000644  -0.000143  -0.002789  -0.000002   0.000000
     9  S    0.000798   0.000020  -0.000017   0.000007  -0.006491   0.000604
    10  C    0.000087   0.000000   0.000000   0.000001  -0.009752  -0.021223
    11  C    0.000002   0.000000   0.000000   0.000000   0.009033   0.011702
    12  C    0.349973  -0.020775   0.006810   0.005153  -0.000007   0.000000
    13  C   -0.038000   0.431520  -0.070457   0.012790   0.000000   0.000000
    14  C    0.033273  -0.061820   0.417994  -0.021879   0.000000   0.000000
    15  C   -0.007680   0.007971  -0.014259   0.438277   0.000001   0.000000
    16  C   -0.000007   0.000000   0.000000   0.000000   0.349972  -0.020774
    17  C    0.000000   0.000000   0.000000   0.000000  -0.038001   0.431518
    18  C    0.000000   0.000000   0.000000   0.000000   0.033273  -0.061820
    19  C    0.000001   0.000000   0.000000   0.000000  -0.007681   0.007972
    20  C   -0.000028   0.000037   0.000662   0.000072  -0.000002   0.000000
    21  C    0.000133   0.000027  -0.000013  -0.002324   0.000000   0.000000
    22  C   -0.000002   0.000000   0.000000  -0.000002  -0.000028   0.000037
    23  C    0.000000   0.000000   0.000000   0.000001   0.000133   0.000027
    24  H    0.000002   0.000000   0.000000  -0.000020   0.000002   0.000000
    25  H    0.510670  -0.004393  -0.000300   0.000050   0.000000   0.000000
    26  H   -0.004393   0.524814  -0.004742  -0.000277   0.000000   0.000000
    27  H   -0.000300  -0.004742   0.527756  -0.005206   0.000000   0.000000
    28  H    0.000050  -0.000277  -0.005206   0.507759   0.000000   0.000000
    29  H    0.000000   0.000000   0.000000   0.000000   0.510670  -0.004393
    30  H    0.000000   0.000000   0.000000   0.000000  -0.004393   0.524814
    31  H    0.000000   0.000000   0.000000   0.000000  -0.000300  -0.004742
    32  H    0.000000   0.000000   0.000000   0.000000   0.000050  -0.000277
    33  H    0.000000   0.000000   0.000000   0.000081   0.000000   0.000000
    34  H    0.000001   0.000000   0.000027   0.000921   0.000000   0.000000
    35  H   -0.000001   0.000000  -0.000001  -0.000273   0.000000   0.000000
    36  H    0.000000   0.000000   0.000000   0.000007   0.000000   0.000000
    37  H    0.000000   0.000000  -0.000001   0.000131   0.000000   0.000000
    38  H    0.000000   0.000000   0.000000   0.000000   0.000000   0.000000
    39  H    0.000000   0.000000   0.000000   0.000000   0.000001   0.000000
    40  H    0.000000   0.000000   0.000000   0.000000  -0.000001   0.000000
    41  H    0.000000   0.000000   0.000000   0.000000   0.000000   0.000000
    42  H    0.000000   0.000000   0.000000   0.000000   0.000000   0.000000
             31         32         33         34         35         36
     1  C   -0.000005   0.000271   0.003876   0.007683  -0.010165  -0.008335
     2  C   -0.000114   0.000593   0.018843  -0.003677   0.004811   0.009420
     3  C   -0.002045   0.012685   0.016062  -0.000745  -0.001344  -0.002947
     4  N   -0.000143  -0.002789  -0.000286  -0.000074  -0.000009   0.000126
     5  S   -0.000017   0.000007  -0.007776   0.002675  -0.002768  -0.002211
     6  C    0.000000   0.000001  -0.012425  -0.001159   0.004999   0.006812
     7  C    0.000000   0.000000  -0.021517  -0.013391  -0.022619  -0.002901
     8  N    0.000000   0.000000  -0.028305  -0.041294   0.008085   0.006414
     9  S   -0.000586  -0.002952   0.002124  -0.000596  -0.000122  -0.000125
    10  C    0.010552  -0.003983   0.001140  -0.000031  -0.000053  -0.000204
    11  C   -0.001690  -0.088174   0.001484   0.000003  -0.000033  -0.000128
    12  C    0.000000   0.000000  -0.002379  -0.002084   0.001710   0.000832
    13  C    0.000000   0.000000  -0.000321   0.001409   0.000946   0.000184
    14  C    0.000000   0.000000   0.002166   0.015295   0.004390  -0.000656
    15  C    0.000000   0.000000   0.007028   0.019707   0.019097   0.001055
    16  C    0.006810   0.005154   0.000125  -0.000004  -0.000005  -0.000016
    17  C   -0.070455   0.012790   0.000004   0.000000   0.000000  -0.000001
    18  C    0.417990  -0.021883  -0.000017   0.000001   0.000000   0.000004
    19  C   -0.014256   0.438280  -0.000147  -0.000002   0.000001  -0.000001
    20  C    0.000000  -0.000002   0.389707   0.398375  -0.049440  -0.038645
    21  C    0.000000   0.000001  -0.022933  -0.035443   0.427433   0.417163
    22  C    0.000662   0.000072   0.006259   0.000340   0.000228  -0.002883
    23  C   -0.000013  -0.002324  -0.003385  -0.000131  -0.000094   0.001000
    24  H    0.000000  -0.000020  -0.000244   0.000510   0.000163  -0.000657
    25  H    0.000000   0.000000   0.000000   0.000001  -0.000001   0.000000
    26  H    0.000000   0.000000   0.000000   0.000000   0.000000   0.000000
    27  H    0.000000   0.000000   0.000000   0.000027  -0.000001   0.000000
    28  H    0.000000   0.000000   0.000081   0.000921  -0.000273   0.000007
    29  H   -0.000300   0.000050   0.000000   0.000000   0.000000   0.000000
    30  H   -0.004742  -0.000277   0.000000   0.000000   0.000000   0.000000
    31  H    0.527756  -0.005206   0.000000   0.000000   0.000000   0.000000
    32  H   -0.005206   0.507755   0.000000   0.000000   0.000000   0.000000
    33  H    0.000000   0.000000   0.521549  -0.024357   0.004954  -0.006340
    34  H    0.000000   0.000000  -0.024357   0.521607  -0.006387   0.005413
    35  H    0.000000   0.000000   0.004954  -0.006387   0.520488  -0.030656
    36  H    0.000000   0.000000  -0.006340   0.005413  -0.030656   0.521062
    37  H    0.000000   0.000000  -0.002112  -0.001618  -0.024455  -0.024583
    38  H    0.000000   0.000081  -0.000815  -0.000016  -0.000004   0.000505
    39  H    0.000027   0.000920  -0.000016   0.000000   0.000000   0.000005
    40  H   -0.000001  -0.000273  -0.000004   0.000000   0.000000   0.000001
    41  H    0.000000   0.000007   0.000505   0.000005   0.000001  -0.000009
    42  H   -0.000001   0.000131  -0.000040   0.000000   0.000000   0.000004
             37         38         39         40         41         42
     1  C    0.006541   0.016073  -0.000748  -0.001343  -0.002949  -0.000125
     2  C   -0.006193   0.018844  -0.003673   0.004810   0.009418  -0.006192
     3  C   -0.000125   0.003890   0.007673  -0.010164  -0.008333   0.006538
     4  N   -0.000059  -0.028308  -0.041294   0.008088   0.006413   0.001225
     5  S    0.002220   0.002125  -0.000596  -0.000122  -0.000125  -0.000206
     6  C   -0.002105   0.001141  -0.000031  -0.000053  -0.000204   0.000032
     7  C    0.010434   0.001484   0.000003  -0.000033  -0.000127  -0.000034
     8  N    0.001222  -0.000286  -0.000074  -0.000009   0.000126  -0.000059
     9  S   -0.000206  -0.007780   0.002676  -0.002767  -0.002210   0.002219
    10  C    0.000032  -0.012431  -0.001152   0.004998   0.006814  -0.002103
    11  C   -0.000034  -0.021528  -0.013379  -0.022634  -0.002902   0.010432
    12  C   -0.000255   0.000125  -0.000004  -0.000005  -0.000016   0.000001
    13  C   -0.000157   0.000004   0.000000   0.000000  -0.000001   0.000000
    14  C   -0.000561  -0.000017   0.000001   0.000000   0.000004  -0.000001
    15  C   -0.006637  -0.000147  -0.000002   0.000001  -0.000001  -0.000002
    16  C    0.000001  -0.002380  -0.002082   0.001709   0.000832  -0.000255
    17  C    0.000000  -0.000322   0.001410   0.000946   0.000184  -0.000157
    18  C   -0.000001   0.002168   0.015286   0.004395  -0.000657  -0.000562
    19  C   -0.000002   0.007030   0.019711   0.019104   0.001055  -0.006637
    20  C   -0.030749   0.006260   0.000340   0.000228  -0.002882   0.000013
    21  C    0.403060  -0.003386  -0.000131  -0.000094   0.000999  -0.000159
    22  C    0.000013   0.389706   0.398367  -0.049441  -0.038647  -0.030746
    23  C   -0.000159  -0.022934  -0.035442   0.427436   0.417164   0.403057
    24  H    0.000183  -0.000243   0.000511   0.000163  -0.000657   0.000183
    25  H    0.000000   0.000000   0.000000   0.000000   0.000000   0.000000
    26  H    0.000000   0.000000   0.000000   0.000000   0.000000   0.000000
    27  H   -0.000001   0.000000   0.000000   0.000000   0.000000   0.000000
    28  H    0.000131   0.000000   0.000000   0.000000   0.000000   0.000000
    29  H    0.000000   0.000000   0.000001  -0.000001   0.000000   0.000000
    30  H    0.000000   0.000000   0.000000   0.000000   0.000000   0.000000
    31  H    0.000000   0.000000   0.000027  -0.000001   0.000000  -0.000001
    32  H    0.000000   0.000081   0.000920  -0.000273   0.000007   0.000131
    33  H   -0.002112  -0.000815  -0.000016  -0.000004   0.000505  -0.000040
    34  H   -0.001618  -0.000016   0.000000   0.000000   0.000005   0.000000
    35  H   -0.024455  -0.000004   0.000000   0.000000   0.000001   0.000000
    36  H   -0.024583   0.000505   0.000005   0.000001  -0.000009   0.000004
    37  H    0.524300  -0.000040   0.000000   0.000000   0.000004   0.000001
    38  H   -0.000040   0.521543  -0.024356   0.004954  -0.006339  -0.002114
    39  H    0.000000  -0.024356   0.521607  -0.006388   0.005413  -0.001617
    40  H    0.000000   0.004954  -0.006388   0.520487  -0.030656  -0.024456
    41  H    0.000004  -0.006339   0.005413  -0.030656   0.521060  -0.024583
    42  H    0.000001  -0.002114  -0.001617  -0.024456  -0.024583   0.524301
 Mulliken atomic charges:
              1
     1  C    0.427148
     2  C   -0.407695
     3  C    0.427072
     4  N    0.166946
     5  S   -0.548969
     6  C    0.555691
     7  C    0.484427
     8  N    0.166902
     9  S   -0.548979
    10  C    0.555726
    11  C    0.484363
    12  C   -0.368205
    13  C   -0.235984
    14  C   -0.221781
    15  C   -0.321185
    16  C   -0.368136
    17  C   -0.235996
    18  C   -0.221816
    19  C   -0.321135
    20  C   -0.218295
    21  C   -0.443960
    22  C   -0.218305
    23  C   -0.443955
    24  H    0.166403
    25  H    0.155057
    26  H    0.136067
    27  H    0.135778
    28  H    0.149081
    29  H    0.155057
    30  H    0.136067
    31  H    0.135778
    32  H    0.149085
    33  H    0.157511
    34  H    0.157035
    35  H    0.151123
    36  H    0.151292
    37  H    0.151914
    38  H    0.157511
    39  H    0.157034
    40  H    0.151123
    41  H    0.151293
    42  H    0.151912
 Sum of Mulliken atomic charges =   1.00000
 Mulliken charges with hydrogens summed into heavy atoms:
              1
     1  C    0.427148
     2  C   -0.241292
     3  C    0.427072
     4  N    0.166946
     5  S   -0.548969
     6  C    0.555691
     7  C    0.484427
     8  N    0.166902
     9  S   -0.548979
    10  C    0.555726
    11  C    0.484363
    12  C   -0.213149
    13  C   -0.099918
    14  C   -0.086003
    15  C   -0.172104
    16  C   -0.213078
    17  C   -0.099929
    18  C   -0.086037
    19  C   -0.172050
    20  C    0.096251
    21  C    0.010369
    22  C    0.096241
    23  C    0.010373
 Sum of Mulliken charges with hydrogens summed into heavy atoms =   1.00000
 Electronic spatial extent (au):  <R**2>=          10370.1728
 Charge=              1.0000 electrons
 Dipole moment (field-independent basis, Debye):
    X=              0.0001    Y=              5.3630    Z=              0.0001  Tot=              5.3630
 Quadrupole moment (field-independent basis, Debye-Ang):
   XX=            -70.9864   YY=           -110.0945   ZZ=           -154.8480
   XY=             -0.0003   XZ=              2.1491   YZ=             -0.0005
 Traceless Quadrupole moment (field-independent basis, Debye-Ang):
   XX=             40.9899   YY=              1.8818   ZZ=            -42.8717
   XY=             -0.0003   XZ=              2.1491   YZ=             -0.0005
 Octapole moment (field-independent basis, Debye-Ang**2):
  XXX=              0.0019  YYY=             22.7325  ZZZ=              0.0003  XYY=             -0.0004
  XXY=              3.3267  XXZ=              0.0024  XZZ=             -0.0001  YZZ=             14.9263
  YYZ=              0.0017  XYZ=              6.9125
 Hexadecapole moment (field-independent basis, Debye-Ang**3):
 XXXX=          -8728.9767 YYYY=          -2349.1077 ZZZZ=           -344.1322 XXXY=             -0.0063
 XXXZ=             76.8307 YYYX=             -0.0079 YYYZ=             -0.0038 ZZZX=            -10.0132
 ZZZY=              0.0014 XXYY=          -1856.6797 XXZZ=          -2142.0003 YYZZ=           -523.6440
 XXYZ=             -0.0138 YYXZ=              2.0500 ZZXY=              0.0003
 N-N= 2.127852277989D+03 E-N=-8.086780952672D+03  KE= 1.636261300169D+03
 1|1|UNPC-ZCWANG|SP|RTD-B3LYP-FC|6-311+G(2d,p)|C19H19N2S2(1+)|11234|27-
 Oct-2023|0||# td=(nstates=50) b3lyp/6-311+g(2d,p) scrf(smd, solvent=et
 hanol)||A-1||1,1|C,0,-1.259214,0.216698,-0.039367|C,0,0.000003,0.82893
 5,-0.000122|C,0,1.259209,0.216684,0.039249|N,0,2.433464,0.904848,0.145
 998|S,0,-1.557561,-1.512152,0.053882|C,0,-3.297665,-1.258824,-0.027283
 |C,0,-3.589904,0.108866,-0.118299|N,0,-2.433474,0.904863,-0.146106|S,0
 ,1.557549,-1.512171,-0.053923|C,0,3.297657,-1.25885,0.027304|C,0,3.589
 9,0.108842,0.118251|C,0,-4.301571,-2.224422,-0.003624|C,0,-5.624645,-1
 .792125,-0.066975|C,0,-5.925643,-0.425687,-0.149009|C,0,-4.920394,0.53
 8274,-0.174272|C,0,4.301563,-2.22445,0.003718|C,0,5.624635,-1.792149,0
 .067066|C,0,5.925635,-0.425707,0.149021|C,0,4.920384,0.538258,0.174213
 |C,0,-2.510348,2.373529,-0.257226|C,0,-2.566433,3.073786,1.101522|C,0,
 2.510339,2.373497,0.257299|C,0,2.566508,3.073929,-1.101357|H,0,0.00001
 4,1.90904,-0.000214|H,0,-4.060576,-3.280313,0.063971|H,0,-6.427238,-2.
 522132,-0.049094|H,0,-6.962056,-0.106514,-0.191342|H,0,-5.176748,1.590
 213,-0.22813|H,0,4.060566,-3.280345,-0.063815|H,0,6.42723,-2.522156,0.
 049231|H,0,6.962048,-0.106532,0.191339|H,0,5.176733,1.590201,0.228019|
 H,0,-1.657488,2.708489,-0.852128|H,0,-3.398115,2.597174,-0.852215|H,0,
 -3.441185,2.752064,1.674572|H,0,-1.673838,2.863356,1.699082|H,0,-2.634
 23,4.156364,0.954302|H,0,1.657436,2.708379,0.852183|H,0,3.398074,2.597
 059,0.85237|H,0,3.441334,2.752344,-1.674368|H,0,1.673988,2.86351,-1.69
 9033|H,0,2.634214,4.156493,-0.95399||Version=IA32W-G09RevA.02|State=1-
 A|HF=-1641.5328456|RMSD=2.596e-009|PG=C01 [X(C19H19N2S2)]||@


 MISERY NO LONGER LOVES COMPANY.  NOWADAYS IT INSISTS ON IT.

                                              -- BAKER'S LAW
 Job cpu time:  0 days 17 hours 46 minutes 27.0 seconds.
 File lengths (MBytes):  RWF=   4386 Int=      0 D2E=      0 Chk=    798 Scr=      1
 Normal termination of Gaussian 09 at Fri Oct 27 05:05:08 2023.
