 Entering Link 1 = D:\G09W\l1.exe PID=      9740.
  
 Copyright (c) 1988,1990,1992,1993,1995,1998,2003,2009, Gaussian, Inc.
                  All Rights Reserved.
  
 This is part of the Gaussian(R) 09 program.  It is based on
 the Gaussian(R) 03 system (copyright 2003, Gaussian, Inc.),
 the Gaussian(R) 98 system (copyright 1998, Gaussian, Inc.),
 the Gaussian(R) 94 system (copyright 1995, Gaussian, Inc.),
 the Gaussian 92(TM) system (copyright 1992, Gaussian, Inc.),
 the Gaussian 90(TM) system (copyright 1990, Gaussian, Inc.),
 the Gaussian 88(TM) system (copyright 1988, Gaussian, Inc.),
 the Gaussian 86(TM) system (copyright 1986, Carnegie Mellon
 University), and the Gaussian 82(TM) system (copyright 1983,
 Carnegie Mellon University). Gaussian is a federally registered
 trademark of Gaussian, Inc.
  
 This software contains proprietary and confidential information,
 including trade secrets, belonging to Gaussian, Inc.
  
 This software is provided under written license and may be
 used, copied, transmitted, or stored only in accord with that
 written license.
  
 The following legend is applicable only to US Government
 contracts under FAR:
  
                    RESTRICTED RIGHTS LEGEND
  
 Use, reproduction and disclosure by the US Government is
 subject to restrictions as set forth in subparagraphs (a)
 and (c) of the Commercial Computer Software - Restricted
 Rights clause in FAR 52.227-19.
  
 Gaussian, Inc.
 340 Quinnipiac St., Bldg. 40, Wallingford CT 06492
  
  
 ---------------------------------------------------------------
 Warning -- This program may not be used in any manner that
 competes with the business of Gaussian, Inc. or will provide
 assistance to any competitor of Gaussian, Inc.  The licensee
 of this program is prohibited from giving any competitor of
 Gaussian, Inc. access to this program.  By using this program,
 the user acknowledges that Gaussian, Inc. is engaged in the
 business of creating and licensing software in the field of
 computational chemistry and represents and warrants to the
 licensee that it is not a competitor of Gaussian, Inc. and that
 it will not use this program in any manner prohibited above.
 ---------------------------------------------------------------
  

 Cite this work as:
 Gaussian 09, Revision A.02,
 M. J. Frisch, G. W. Trucks, H. B. Schlegel, G. E. Scuseria, 
 M. A. Robb, J. R. Cheeseman, G. Scalmani, V. Barone, B. Mennucci, 
 G. A. Petersson, H. Nakatsuji, M. Caricato, X. Li, H. P. Hratchian, 
 A. F. Izmaylov, J. Bloino, G. Zheng, J. L. Sonnenberg, M. Hada, 
 M. Ehara, K. Toyota, R. Fukuda, J. Hasegawa, M. Ishida, T. Nakajima, 
 Y. Honda, O. Kitao, H. Nakai, T. Vreven, J. A. Montgomery, Jr., 
 J. E. Peralta, F. Ogliaro, M. Bearpark, J. J. Heyd, E. Brothers, 
 K. N. Kudin, V. N. Staroverov, R. Kobayashi, J. Normand, 
 K. Raghavachari, A. Rendell, J. C. Burant, S. S. Iyengar, J. Tomasi, 
 M. Cossi, N. Rega, J. M. Millam, M. Klene, J. E. Knox, J. B. Cross, 
 V. Bakken, C. Adamo, J. Jaramillo, R. Gomperts, R. E. Stratmann, 
 O. Yazyev, A. J. Austin, R. Cammi, C. Pomelli, J. W. Ochterski, 
 R. L. Martin, K. Morokuma, V. G. Zakrzewski, G. A. Voth, 
 P. Salvador, J. J. Dannenberg, S. Dapprich, A. D. Daniels, 
 O. Farkas, J. B. Foresman, J. V. Ortiz, J. Cioslowski, 
 and D. J. Fox, Gaussian, Inc., Wallingford CT, 2009.
 
 ******************************************
 Gaussian 09:  IA32W-G09RevA.02 11-Jun-2009
                24-Oct-2023 
 ******************************************
 %nproc=4
 Will use up to    4 processors via shared memory.
 %mem=1175MB
 -----------------------
 # opt freq b3lyp/6-31g*
 -----------------------
 1/14=-1,18=20,19=15,26=3,38=1/1,3;
 2/9=110,12=2,17=6,18=5,40=1/2;
 3/5=1,6=6,7=1,11=2,16=1,25=1,30=1,71=1,74=-5/1,2,3;
 4//1;
 5/5=2,38=5/2;
 6/7=2,8=2,9=2,10=2,28=1/1;
 7//1,2,3,16;
 1/14=-1,18=20,19=15/3(2);
 2/9=110/2;
 99//99;
 2/9=110/2;
 3/5=1,6=6,7=1,11=2,16=1,25=1,30=1,71=1,74=-5/1,2,3;
 4/5=5,16=3/1;
 5/5=2,38=5/2;
 7//1,2,3,16;
 1/14=-1,18=20,19=15/3(-5);
 2/9=110/2;
 6/7=2,8=2,9=2,10=2,19=2,28=1/1;
 99/9=1/99;
 ---
 A-1
 ---
 Symbolic Z-matrix:
 Charge =  1 Multiplicity = 1
 C                    -6.9307    5.92869  -2.90646 
 C                    -5.70256   5.69827  -2.32983 
 C                    -5.24562   4.5746   -1.84914 
 N                    -4.07694   4.38386  -1.35556 
 S                    -8.14282   5.02015  -3.1506 
 C                    -9.07896   6.14383  -3.38977 
 C                    -8.41751   7.26939  -3.69757 
 N                    -7.14517   7.15218  -3.39362 
 S                    -6.03324   3.33171  -1.75167 
 C                    -4.95083   2.58272  -1.06182 
 C                    -3.81873   3.26001  -0.89763 
 C                    -10.3711   5.96464  -3.57982 
 C                    -11.1195   7.03303  -3.84101 
 C                    -10.4983   8.20444  -4.10721 
 C                    -9.15944   8.28462  -4.14397 
 C                    -5.10751   1.3271   -0.59417 
 C                    -4.07592   0.68299  -0.06676 
 C                    -2.91877   1.34043   0.13038 
 C                    -2.80925   2.57341  -0.31995 
 C                    -6.19653   8.37943  -3.56106 
 C                    -6.14775   9.31865  -2.34612 
 C                    -2.95982   5.36905  -1.26366 
 C                    -1.98978   5.45432  -2.438 
 H                    -4.96794   6.57491  -2.324 
 H                    -10.8509   4.92957  -3.45027 
 H                    -12.1745   6.92573  -3.85243 
 H                    -11.1259   8.98199  -4.42592 
 H                    -8.67764   9.20849  -4.45665 
 H                    -6.13105   0.88856  -0.71465 
 H                    -4.11185  -0.37654   0.17747 
 H                    -2.0453    0.85065   0.56349 
 H                    -1.79519   2.96526  -0.17635 
 H                    -5.20188   7.99012  -3.91679 
 H                    -6.55458   8.99246  -4.45217 
 H                    -6.9433    9.19272  -1.59586 
 H                    -5.19781   9.33388  -1.78987 
 H                    -6.16632   10.3452  -2.79603 
 H                    -3.40325   6.34102  -0.9276 
 H                    -2.24992   5.13422  -0.41288 
 H                    -1.7912    4.3687   -2.84855 
 H                    -2.52562   6.06728  -3.21742 
 H                    -1.10367   6.04398  -2.35315 
 

 GradGradGradGradGradGradGradGradGradGradGradGradGradGradGradGradGradGrad
 Berny optimization.
 Initialization pass.
                           ----------------------------
                           !    Initial Parameters    !
                           ! (Angstroms and Degrees)  !
 --------------------------                            --------------------------
 ! Name  Definition              Value          Derivative Info.                !
 --------------------------------------------------------------------------------
 ! R1    R(1,2)                  1.3762         estimate D2E/DX2                !
 ! R2    R(1,5)                  1.5344         estimate D2E/DX2                !
 ! R3    R(1,8)                  1.3343         estimate D2E/DX2                !
 ! R4    R(2,3)                  1.3048         estimate D2E/DX2                !
 ! R5    R(2,24)                 1.1438         estimate D2E/DX2                !
 ! R6    R(3,4)                  1.2829         estimate D2E/DX2                !
 ! R7    R(3,9)                  1.4747         estimate D2E/DX2                !
 ! R8    R(4,11)                 1.2407         estimate D2E/DX2                !
 ! R9    R(4,22)                 1.4923         estimate D2E/DX2                !
 ! R10   R(5,6)                  1.482          estimate D2E/DX2                !
 ! R11   R(6,7)                  1.3413         estimate D2E/DX2                !
 ! R12   R(6,12)                 1.3183         estimate D2E/DX2                !
 ! R13   R(7,8)                  1.3134         estimate D2E/DX2                !
 ! R14   R(7,15)                 1.3343         estimate D2E/DX2                !
 ! R15   R(8,20)                 1.5602         estimate D2E/DX2                !
 ! R16   R(9,10)                 1.4861         estimate D2E/DX2                !
 ! R17   R(10,11)                1.3294         estimate D2E/DX2                !
 ! R18   R(10,16)                1.349          estimate D2E/DX2                !
 ! R19   R(11,19)                1.3506         estimate D2E/DX2                !
 ! R20   R(12,13)                1.3303         estimate D2E/DX2                !
 ! R21   R(12,25)                1.1482         estimate D2E/DX2                !
 ! R22   R(13,14)                1.3524         estimate D2E/DX2                !
 ! R23   R(13,26)                1.0605         estimate D2E/DX2                !
 ! R24   R(14,15)                1.3418         estimate D2E/DX2                !
 ! R25   R(14,27)                1.0488         estimate D2E/DX2                !
 ! R26   R(15,28)                1.0879         estimate D2E/DX2                !
 ! R27   R(16,17)                1.3256         estimate D2E/DX2                !
 ! R28   R(16,29)                1.12           estimate D2E/DX2                !
 ! R29   R(17,18)                1.3454         estimate D2E/DX2                !
 ! R30   R(17,30)                1.0879         estimate D2E/DX2                !
 ! R31   R(18,19)                1.3172         estimate D2E/DX2                !
 ! R32   R(18,31)                1.0911         estimate D2E/DX2                !
 ! R33   R(19,32)                1.0966         estimate D2E/DX2                !
 ! R34   R(20,21)                1.5364         estimate D2E/DX2                !
 ! R35   R(20,33)                1.1258         estimate D2E/DX2                !
 ! R36   R(20,34)                1.1393         estimate D2E/DX2                !
 ! R37   R(21,35)                1.1007         estimate D2E/DX2                !
 ! R38   R(21,36)                1.1009         estimate D2E/DX2                !
 ! R39   R(21,37)                1.121          estimate D2E/DX2                !
 ! R40   R(22,23)                1.5256         estimate D2E/DX2                !
 ! R41   R(22,38)                1.12           estimate D2E/DX2                !
 ! R42   R(22,39)                1.1327         estimate D2E/DX2                !
 ! R43   R(23,40)                1.1775         estimate D2E/DX2                !
 ! R44   R(23,41)                1.1271         estimate D2E/DX2                !
 ! R45   R(23,42)                1.0677         estimate D2E/DX2                !
 ! A1    A(2,1,5)              132.2617         estimate D2E/DX2                !
 ! A2    A(2,1,8)              116.7414         estimate D2E/DX2                !
 ! A3    A(5,1,8)              110.9707         estimate D2E/DX2                !
 ! A4    A(1,2,3)              127.6673         estimate D2E/DX2                !
 ! A5    A(1,2,24)             116.5507         estimate D2E/DX2                !
 ! A6    A(3,2,24)             115.674          estimate D2E/DX2                !
 ! A7    A(2,3,4)              126.0721         estimate D2E/DX2                !
 ! A8    A(2,3,9)              124.2733         estimate D2E/DX2                !
 ! A9    A(4,3,9)              109.6219         estimate D2E/DX2                !
 ! A10   A(3,4,11)             117.7916         estimate D2E/DX2                !
 ! A11   A(3,4,22)             127.4072         estimate D2E/DX2                !
 ! A12   A(11,4,22)            114.8011         estimate D2E/DX2                !
 ! A13   A(1,5,6)               94.3431         estimate D2E/DX2                !
 ! A14   A(5,6,7)              111.2106         estimate D2E/DX2                !
 ! A15   A(5,6,12)             122.6405         estimate D2E/DX2                !
 ! A16   A(7,6,12)             124.3562         estimate D2E/DX2                !
 ! A17   A(6,7,8)              110.4708         estimate D2E/DX2                !
 ! A18   A(6,7,15)             116.1702         estimate D2E/DX2                !
 ! A19   A(8,7,15)             133.1556         estimate D2E/DX2                !
 ! A20   A(1,8,7)              108.7869         estimate D2E/DX2                !
 ! A21   A(1,8,20)             131.5108         estimate D2E/DX2                !
 ! A22   A(7,8,20)             119.604          estimate D2E/DX2                !
 ! A23   A(3,9,10)              93.8101         estimate D2E/DX2                !
 ! A24   A(9,10,11)            114.8861         estimate D2E/DX2                !
 ! A25   A(9,10,16)            123.0542         estimate D2E/DX2                !
 ! A26   A(11,10,16)           122.0251         estimate D2E/DX2                !
 ! A27   A(4,11,10)            103.8079         estimate D2E/DX2                !
 ! A28   A(4,11,19)            140.7033         estimate D2E/DX2                !
 ! A29   A(10,11,19)           115.4878         estimate D2E/DX2                !
 ! A30   A(6,12,13)            118.0703         estimate D2E/DX2                !
 ! A31   A(6,12,25)            121.0547         estimate D2E/DX2                !
 ! A32   A(13,12,25)           120.7335         estimate D2E/DX2                !
 ! A33   A(12,13,14)           118.4159         estimate D2E/DX2                !
 ! A34   A(12,13,26)           118.7184         estimate D2E/DX2                !
 ! A35   A(14,13,26)           122.852          estimate D2E/DX2                !
 ! A36   A(13,14,15)           121.0306         estimate D2E/DX2                !
 ! A37   A(13,14,27)           115.2835         estimate D2E/DX2                !
 ! A38   A(15,14,27)           122.9879         estimate D2E/DX2                !
 ! A39   A(7,15,14)            120.0131         estimate D2E/DX2                !
 ! A40   A(7,15,28)            119.7396         estimate D2E/DX2                !
 ! A41   A(14,15,28)           120.0367         estimate D2E/DX2                !
 ! A42   A(10,16,17)           119.9869         estimate D2E/DX2                !
 ! A43   A(10,16,29)           115.6763         estimate D2E/DX2                !
 ! A44   A(17,16,29)           124.3129         estimate D2E/DX2                !
 ! A45   A(16,17,18)           119.3525         estimate D2E/DX2                !
 ! A46   A(16,17,30)           122.4688         estimate D2E/DX2                !
 ! A47   A(18,17,30)           118.1268         estimate D2E/DX2                !
 ! A48   A(17,18,19)           118.609          estimate D2E/DX2                !
 ! A49   A(17,18,31)           121.8273         estimate D2E/DX2                !
 ! A50   A(19,18,31)           119.2977         estimate D2E/DX2                !
 ! A51   A(11,19,18)           124.0513         estimate D2E/DX2                !
 ! A52   A(11,19,32)           124.4389         estimate D2E/DX2                !
 ! A53   A(18,19,32)           111.5067         estimate D2E/DX2                !
 ! A54   A(8,20,21)            114.5383         estimate D2E/DX2                !
 ! A55   A(8,20,33)            107.4035         estimate D2E/DX2                !
 ! A56   A(8,20,34)            108.4275         estimate D2E/DX2                !
 ! A57   A(21,20,33)           115.6711         estimate D2E/DX2                !
 ! A58   A(21,20,34)           107.4299         estimate D2E/DX2                !
 ! A59   A(33,20,34)           102.5082         estimate D2E/DX2                !
 ! A60   A(20,21,35)           116.4932         estimate D2E/DX2                !
 ! A61   A(20,21,36)           115.81           estimate D2E/DX2                !
 ! A62   A(20,21,37)           103.9993         estimate D2E/DX2                !
 ! A63   A(35,21,36)           106.3092         estimate D2E/DX2                !
 ! A64   A(35,21,37)           111.4911         estimate D2E/DX2                !
 ! A65   A(36,21,37)           101.7953         estimate D2E/DX2                !
 ! A66   A(4,22,23)            117.7419         estimate D2E/DX2                !
 ! A67   A(4,22,38)            107.1595         estimate D2E/DX2                !
 ! A68   A(4,22,39)            112.2445         estimate D2E/DX2                !
 ! A69   A(23,22,38)           115.7366         estimate D2E/DX2                !
 ! A70   A(23,22,39)           101.0268         estimate D2E/DX2                !
 ! A71   A(38,22,39)           101.6946         estimate D2E/DX2                !
 ! A72   A(22,23,40)           108.9104         estimate D2E/DX2                !
 ! A73   A(22,23,41)           105.0952         estimate D2E/DX2                !
 ! A74   A(22,23,42)           119.8273         estimate D2E/DX2                !
 ! A75   A(40,23,41)           109.9052         estimate D2E/DX2                !
 ! A76   A(40,23,42)           113.3844         estimate D2E/DX2                !
 ! A77   A(41,23,42)            98.5783         estimate D2E/DX2                !
 ! D1    D(5,1,2,3)              1.5245         estimate D2E/DX2                !
 ! D2    D(5,1,2,24)           177.5561         estimate D2E/DX2                !
 ! D3    D(8,1,2,3)           -176.4162         estimate D2E/DX2                !
 ! D4    D(8,1,2,24)            -0.3845         estimate D2E/DX2                !
 ! D5    D(2,1,5,6)            163.4476         estimate D2E/DX2                !
 ! D6    D(8,1,5,6)            -18.5219         estimate D2E/DX2                !
 ! D7    D(2,1,8,7)           -169.5807         estimate D2E/DX2                !
 ! D8    D(2,1,8,20)             6.7029         estimate D2E/DX2                !
 ! D9    D(5,1,8,7)             12.0514         estimate D2E/DX2                !
 ! D10   D(5,1,8,20)          -171.665          estimate D2E/DX2                !
 ! D11   D(1,2,3,4)            177.6297         estimate D2E/DX2                !
 ! D12   D(1,2,3,9)             -4.6719         estimate D2E/DX2                !
 ! D13   D(24,2,3,4)             1.5684         estimate D2E/DX2                !
 ! D14   D(24,2,3,9)           179.2668         estimate D2E/DX2                !
 ! D15   D(2,3,4,11)           177.5289         estimate D2E/DX2                !
 ! D16   D(2,3,4,22)            -2.6167         estimate D2E/DX2                !
 ! D17   D(9,3,4,11)            -0.452          estimate D2E/DX2                !
 ! D18   D(9,3,4,22)           179.4024         estimate D2E/DX2                !
 ! D19   D(2,3,9,10)          -176.1755         estimate D2E/DX2                !
 ! D20   D(4,3,9,10)             1.8496         estimate D2E/DX2                !
 ! D21   D(3,4,11,10)           -1.431          estimate D2E/DX2                !
 ! D22   D(3,4,11,19)          178.98           estimate D2E/DX2                !
 ! D23   D(22,4,11,10)         178.6964         estimate D2E/DX2                !
 ! D24   D(22,4,11,19)          -0.8926         estimate D2E/DX2                !
 ! D25   D(3,4,22,23)          -89.3482         estimate D2E/DX2                !
 ! D26   D(3,4,22,38)           43.1749         estimate D2E/DX2                !
 ! D27   D(3,4,22,39)          153.9981         estimate D2E/DX2                !
 ! D28   D(11,4,22,23)          90.5099         estimate D2E/DX2                !
 ! D29   D(11,4,22,38)        -136.9669         estimate D2E/DX2                !
 ! D30   D(11,4,22,39)         -26.1438         estimate D2E/DX2                !
 ! D31   D(1,5,6,7)             19.3016         estimate D2E/DX2                !
 ! D32   D(1,5,6,12)          -175.3564         estimate D2E/DX2                !
 ! D33   D(5,6,7,8)            -15.0328         estimate D2E/DX2                !
 ! D34   D(5,6,7,15)           169.4612         estimate D2E/DX2                !
 ! D35   D(12,6,7,8)           179.9254         estimate D2E/DX2                !
 ! D36   D(12,6,7,15)            4.4194         estimate D2E/DX2                !
 ! D37   D(5,6,12,13)         -177.2974         estimate D2E/DX2                !
 ! D38   D(5,6,12,25)            6.9973         estimate D2E/DX2                !
 ! D39   D(7,6,12,13)          -13.9016         estimate D2E/DX2                !
 ! D40   D(7,6,12,25)          170.3931         estimate D2E/DX2                !
 ! D41   D(6,7,8,1)              1.521          estimate D2E/DX2                !
 ! D42   D(6,7,8,20)          -175.2788         estimate D2E/DX2                !
 ! D43   D(15,7,8,1)           175.9893         estimate D2E/DX2                !
 ! D44   D(15,7,8,20)           -0.8105         estimate D2E/DX2                !
 ! D45   D(6,7,15,14)            8.248          estimate D2E/DX2                !
 ! D46   D(6,7,15,28)         -177.0215         estimate D2E/DX2                !
 ! D47   D(8,7,15,14)         -165.9768         estimate D2E/DX2                !
 ! D48   D(8,7,15,28)            8.7537         estimate D2E/DX2                !
 ! D49   D(1,8,20,21)          -89.2838         estimate D2E/DX2                !
 ! D50   D(1,8,20,33)           40.6693         estimate D2E/DX2                !
 ! D51   D(1,8,20,34)          150.7701         estimate D2E/DX2                !
 ! D52   D(7,8,20,21)           86.6691         estimate D2E/DX2                !
 ! D53   D(7,8,20,33)         -143.3778         estimate D2E/DX2                !
 ! D54   D(7,8,20,34)          -33.277          estimate D2E/DX2                !
 ! D55   D(3,9,10,11)           -2.8437         estimate D2E/DX2                !
 ! D56   D(3,9,10,16)          175.0529         estimate D2E/DX2                !
 ! D57   D(9,10,11,4)            2.8236         estimate D2E/DX2                !
 ! D58   D(9,10,11,19)        -177.4648         estimate D2E/DX2                !
 ! D59   D(16,10,11,4)        -175.097          estimate D2E/DX2                !
 ! D60   D(16,10,11,19)          4.6146         estimate D2E/DX2                !
 ! D61   D(9,10,16,17)         175.5653         estimate D2E/DX2                !
 ! D62   D(9,10,16,29)          -2.7307         estimate D2E/DX2                !
 ! D63   D(11,10,16,17)         -6.6854         estimate D2E/DX2                !
 ! D64   D(11,10,16,29)        175.0187         estimate D2E/DX2                !
 ! D65   D(4,11,19,18)         175.9563         estimate D2E/DX2                !
 ! D66   D(4,11,19,32)          -4.7442         estimate D2E/DX2                !
 ! D67   D(10,11,19,18)         -3.6016         estimate D2E/DX2                !
 ! D68   D(10,11,19,32)        175.6979         estimate D2E/DX2                !
 ! D69   D(6,12,13,14)          10.3178         estimate D2E/DX2                !
 ! D70   D(6,12,13,26)        -170.9919         estimate D2E/DX2                !
 ! D71   D(25,12,13,14)       -173.9626         estimate D2E/DX2                !
 ! D72   D(25,12,13,26)          4.7278         estimate D2E/DX2                !
 ! D73   D(12,13,14,15)          1.7797         estimate D2E/DX2                !
 ! D74   D(12,13,14,27)        172.4821         estimate D2E/DX2                !
 ! D75   D(26,13,14,15)       -176.8531         estimate D2E/DX2                !
 ! D76   D(26,13,14,27)         -6.1507         estimate D2E/DX2                !
 ! D77   D(13,14,15,7)         -11.4079         estimate D2E/DX2                !
 ! D78   D(13,14,15,28)        173.8774         estimate D2E/DX2                !
 ! D79   D(27,14,15,7)         178.622          estimate D2E/DX2                !
 ! D80   D(27,14,15,28)          3.9073         estimate D2E/DX2                !
 ! D81   D(10,16,17,18)          7.2423         estimate D2E/DX2                !
 ! D82   D(10,16,17,30)       -170.087          estimate D2E/DX2                !
 ! D83   D(29,16,17,18)       -174.6172         estimate D2E/DX2                !
 ! D84   D(29,16,17,30)          8.0536         estimate D2E/DX2                !
 ! D85   D(16,17,18,19)         -6.1054         estimate D2E/DX2                !
 ! D86   D(16,17,18,31)        179.8629         estimate D2E/DX2                !
 ! D87   D(30,17,18,19)        171.3396         estimate D2E/DX2                !
 ! D88   D(30,17,18,31)         -2.6921         estimate D2E/DX2                !
 ! D89   D(17,18,19,11)          4.4218         estimate D2E/DX2                !
 ! D90   D(17,18,19,32)       -174.9573         estimate D2E/DX2                !
 ! D91   D(31,18,19,11)        178.6076         estimate D2E/DX2                !
 ! D92   D(31,18,19,32)         -0.7715         estimate D2E/DX2                !
 ! D93   D(8,20,21,35)         -14.6024         estimate D2E/DX2                !
 ! D94   D(8,20,21,36)         111.5263         estimate D2E/DX2                !
 ! D95   D(8,20,21,37)        -137.705          estimate D2E/DX2                !
 ! D96   D(33,20,21,35)       -140.3512         estimate D2E/DX2                !
 ! D97   D(33,20,21,36)        -14.2225         estimate D2E/DX2                !
 ! D98   D(33,20,21,37)         96.5461         estimate D2E/DX2                !
 ! D99   D(34,20,21,35)        105.8978         estimate D2E/DX2                !
 ! D100  D(34,20,21,36)       -127.9735         estimate D2E/DX2                !
 ! D101  D(34,20,21,37)        -17.2049         estimate D2E/DX2                !
 ! D102  D(4,22,23,40)         -38.5578         estimate D2E/DX2                !
 ! D103  D(4,22,23,41)          79.1625         estimate D2E/DX2                !
 ! D104  D(4,22,23,42)        -171.4029         estimate D2E/DX2                !
 ! D105  D(38,22,23,40)       -167.1369         estimate D2E/DX2                !
 ! D106  D(38,22,23,41)        -49.4166         estimate D2E/DX2                !
 ! D107  D(38,22,23,42)         60.018          estimate D2E/DX2                !
 ! D108  D(39,22,23,40)         84.0074         estimate D2E/DX2                !
 ! D109  D(39,22,23,41)       -158.2722         estimate D2E/DX2                !
 ! D110  D(39,22,23,42)        -48.8377         estimate D2E/DX2                !
 --------------------------------------------------------------------------------
 Trust Radius=3.00D-01 FncErr=1.00D-07 GrdErr=1.00D-06
 Number of steps in this run= 242 maximum allowed number of steps= 252.
 GradGradGradGradGradGradGradGradGradGradGradGradGradGradGradGradGradGrad

                          Input orientation:                          
 ---------------------------------------------------------------------
 Center     Atomic      Atomic             Coordinates (Angstroms)
 Number     Number       Type             X           Y           Z
 ---------------------------------------------------------------------
      1          6           0       -6.930700    5.928690   -2.906460
      2          6           0       -5.702560    5.698270   -2.329830
      3          6           0       -5.245620    4.574600   -1.849140
      4          7           0       -4.076940    4.383860   -1.355560
      5         16           0       -8.142820    5.020150   -3.150600
      6          6           0       -9.078960    6.143830   -3.389770
      7          6           0       -8.417510    7.269390   -3.697570
      8          7           0       -7.145170    7.152180   -3.393620
      9         16           0       -6.033240    3.331710   -1.751670
     10          6           0       -4.950830    2.582720   -1.061820
     11          6           0       -3.818730    3.260010   -0.897633
     12          6           0      -10.371100    5.964640   -3.579820
     13          6           0      -11.119500    7.033030   -3.841010
     14          6           0      -10.498300    8.204440   -4.107210
     15          6           0       -9.159440    8.284620   -4.143970
     16          6           0       -5.107510    1.327100   -0.594173
     17          6           0       -4.075920    0.682993   -0.066755
     18          6           0       -2.918770    1.340430    0.130381
     19          6           0       -2.809250    2.573410   -0.319945
     20          6           0       -6.196530    8.379430   -3.561060
     21          6           0       -6.147750    9.318650   -2.346120
     22          6           0       -2.959820    5.369050   -1.263660
     23          6           0       -1.989780    5.454320   -2.438000
     24          1           0       -4.967940    6.574910   -2.324000
     25          1           0      -10.850900    4.929570   -3.450270
     26          1           0      -12.174500    6.925730   -3.852430
     27          1           0      -11.125900    8.981990   -4.425920
     28          1           0       -8.677640    9.208490   -4.456650
     29          1           0       -6.131050    0.888561   -0.714653
     30          1           0       -4.111850   -0.376542    0.177468
     31          1           0       -2.045300    0.850649    0.563486
     32          1           0       -1.795190    2.965260   -0.176348
     33          1           0       -5.201880    7.990120   -3.916790
     34          1           0       -6.554580    8.992460   -4.452170
     35          1           0       -6.943300    9.192720   -1.595860
     36          1           0       -5.197810    9.333880   -1.789870
     37          1           0       -6.166320   10.345200   -2.796030
     38          1           0       -3.403250    6.341020   -0.927601
     39          1           0       -2.249920    5.134220   -0.412876
     40          1           0       -1.791200    4.368700   -2.848550
     41          1           0       -2.525620    6.067280   -3.217420
     42          1           0       -1.103670    6.043980   -2.353150
 ---------------------------------------------------------------------
                    Distance matrix (angstroms):
                    1          2          3          4          5
     1  C    0.000000
     2  C    1.376199   0.000000
     3  C    2.406445   1.304796   0.000000
     4  N    3.596629   2.306408   1.282894   0.000000
     5  S    1.534368   2.662401   3.207192   4.489812   0.000000
     6  C    2.212441   3.566802   4.419335   5.679411   1.481964
     7  C    2.152658   3.422000   4.554061   5.714179   2.331032
     8  N    1.334260   2.307949   3.554944   4.607746   2.366414
     9  S    2.980483   2.458500   1.474660   2.256332   3.042723
    10  C    4.303266   3.446679   2.162027   2.023381   4.526905
    11  C    4.565260   3.397810   2.160909   1.240729   5.183793
    12  C    3.505861   4.840320   5.585518   6.860222   2.457951
    13  C    4.431591   5.780008   6.671873   7.924217   3.659095
    14  C    4.398705   5.695532   6.772390   7.962554   4.074689
    15  C    3.471184   4.682983   5.860758   6.987343   3.560487
    16  C    5.463087   4.740645   3.484289   3.314448   5.420982
    17  C    6.612944   5.737636   4.437308   3.918856   6.697814
    18  C    6.809561   5.726508   4.448886   3.579364   7.183027
    19  C    5.910526   4.709101   3.504154   2.440751   6.515068
    20  C    2.640764   2.991413   4.279209   5.032044   3.904009
    21  C    3.524035   3.647686   4.854569   5.442574   4.806724
    22  C    4.333576   2.961035   2.489743   1.492314   5.526822
    23  C    4.985697   3.722358   3.423618   2.583369   6.209364
    24  H    2.146925   1.143765   2.074569   2.555867   3.630483
    25  H    4.081904   5.324631   5.840273   7.111409   2.726115
    26  H    5.420921   6.760989   7.586195   8.846804   4.514227
    27  H    5.406580   6.677502   7.787334   8.958669   5.120682
    28  H    4.026410   5.069133   6.328571   7.352568   4.419727
    29  H    5.553950   5.091729   3.957010   4.104540   5.201066
    30  H    7.563893   6.761675   5.468673   5.001282   7.513258
    31  H    7.854563   6.726534   5.470889   4.504873   8.267946
    32  H    6.527549   5.232052   4.158567   2.934169   7.304872
    33  H    2.873861   2.832260   3.992852   4.564044   4.249341
    34  H    3.452155   4.010231   5.292129   6.080040   4.471671
    35  H    3.517346   3.780123   4.926794   5.603472   4.611551
    36  H    3.980578   3.709985   4.759889   5.093886   5.397494
    37  H    4.483529   4.693226   5.919807   6.479046   5.691083
    38  H    4.065563   2.768790   2.713632   2.113642   5.399069
    39  H    5.362727   3.989184   3.369013   2.188537   6.498801
    40  H    5.371348   4.163600   3.601976   2.730175   6.392081
    41  H    4.418216   3.319176   3.390971   2.950766   5.714358
    42  H    5.854376   4.611925   4.423670   3.548453   7.157778
                    6          7          8          9         10
     6  C    0.000000
     7  C    1.341321   0.000000
     8  N    2.180901   1.313382   0.000000
     9  S    4.457331   4.997659   4.304460   0.000000
    10  C    5.928095   6.397650   5.579640   1.486099   0.000000
    11  C    6.495936   6.712939   5.695976   2.374568   1.329409
    12  C    1.318277   2.352180   3.442607   5.393652   6.867098
    13  C    2.271145   2.716098   4.001207   6.628360   8.098250
    14  C    2.602952   2.317717   3.586076   7.016326   8.464783
    15  C    2.271184   1.334326   2.429553   6.326732   7.728112
    16  C    6.840224   7.476495   6.776468   2.493038   1.349008
    17  C    8.117486   8.684057   7.895486   3.699425   2.316157
    18  C    8.568084   8.946615   8.003592   4.148160   2.663437
    19  C    7.840981   8.056870   7.015185   3.608181   2.266458
    20  C    3.651801   2.486680   1.560159   5.364703   6.434269
    21  C    4.445299   3.343306   2.604937   6.017469   6.960948
    22  C    6.524148   6.270693   5.023289   3.719519   3.430524
    23  C    7.185942   6.796816   5.511260   4.618018   4.348307
    24  H    4.268745   3.777371   2.493523   3.461325   4.187000
    25  H    2.148920   3.384864   4.321532   5.352406   6.784042
    26  H    3.226111   3.775852   5.055289   7.419248   8.878663
    27  H    3.649482   3.286163   4.501118   8.063031   9.507855
    28  H    3.269775   2.098566   2.776132   6.989014   8.325552
    29  H    6.592744   7.405449   6.887541   2.655927   2.093709
    30  H    8.939386   9.592440   8.867658   4.600483   3.316166
    31  H    9.649786   9.998095   9.020901   5.236342   3.752838
    32  H    8.572205   8.647523   7.516876   4.536187   3.299767
    33  H    4.326463   3.302694   2.179960   5.203815   6.119955
    34  H    3.951693   2.647433   2.203623   6.293535   7.426389
    35  H    4.132177   3.207753   2.726994   5.933289   6.924394
    36  H    5.272516   4.274097   3.335272   6.060152   6.794793
    37  H    5.146602   3.916789   3.392733   7.092069   8.046179
    38  H    6.189899   5.803223   4.554250   4.080672   4.066674
    39  H    7.517779   7.306664   6.076222   4.399423   3.771763
    40  H    7.520336   7.283050   6.058866   4.502599   4.045416
    41  H    6.556053   6.032411   4.748505   4.683499   4.761346
    42  H    8.042997   7.536667   6.229800   5.658520   5.333713
                   11         12         13         14         15
    11  C    0.000000
    12  C    7.579096   0.000000
    13  C    8.729284   1.330331   0.000000
    14  C    8.908728   2.304566   1.352388   0.000000
    15  C    8.019264   2.677441   2.345229   1.341762   0.000000
    16  C    2.342901   7.624057   8.901888   9.418060   8.799220
    17  C    2.719839   8.936818  10.206860  10.683839  10.012522
    18  C    2.356168   9.522927  10.743817  11.068924  10.268292
    19  C    1.350627   8.905549  10.067093  10.255407   9.357671
    20  C    6.241493   4.822717   5.111438   4.339830   3.021193
    21  C    6.650531   5.532457   5.672482   4.823918   3.656742
    22  C    2.306459   7.787580   8.717336   8.541305   7.431825
    23  C    3.245425   8.474120   9.370835   9.096391   7.894616
    24  H    3.787317   5.580650   6.352392   6.034906   4.878942
    25  H    7.665168   1.148199   2.156239   3.358671   3.820814
    26  H    9.590997   2.061616   1.060504   2.123596   3.319965
    27  H    9.928978   3.223354   2.034848   1.048829   2.105418
    28  H    8.465224   3.762871   3.327810   2.108323   1.087858
    29  H    3.317239   7.207897   8.509597   9.170845   8.696726
    30  H    3.803455   9.669851  10.961619  11.522954  10.916443
    31  H    3.329406  10.613144  11.830576  12.138651  11.315258
    32  H    2.168374   9.701862  10.812921  10.892420   9.913112
    33  H    5.779477   5.562100   5.994997   5.304174   3.975000
    34  H    7.278777   4.949193   5.005135   4.036447   2.716859
    35  H    6.741477   5.109443   5.210145   4.463362   3.496968
    36  H    6.292046   6.427957   6.675889   5.894141   4.726230
    37  H    7.701624   6.122402   6.049500   5.006805   3.875784
    38  H    3.109042   7.465043   8.276916   7.995122   6.874324
    39  H    2.491750   8.756295   9.696754   9.545163   8.460943
    40  H    3.024260   8.757652   9.751965   9.597433   8.444140
    41  H    3.864494   7.854516   8.670427   8.301976   7.055683
    42  H    4.152176   9.348597  10.173927   9.798132   8.551195
                   16         17         18         19         20
    16  C    0.000000
    17  C    1.325602   0.000000
    18  C    2.305589   1.345393   0.000000
    19  C    2.628781   2.289593   1.317205   0.000000
    20  C    7.728114   8.714488   8.597556   7.462463   0.000000
    21  C    8.247199   9.168563   8.956080   7.794179   1.536422
    22  C    4.625813   4.963607   4.263193   2.954467   4.981639
    23  C    5.491255   5.721918   4.937985   3.668423   5.245405
    24  H    5.527322   6.372248   6.133748   4.968720   2.509192
    25  H    7.356739   8.682278   9.413909   8.945309   5.794564
    26  H    9.586618  10.903674  11.520716  10.914625   6.159080
    27  H   10.464256  11.729360  12.104144  11.273668   5.040808
    28  H    9.475277  10.636311  10.775519   9.776227   2.765019
    29  H    1.120029   2.164622   3.352165   3.745513   8.013703
    30  H    2.118765   1.087911   2.091327   3.262883   9.746257
    31  H    3.308219   2.132775   1.091062   2.081340   9.535572
    32  H    3.718818   3.228387   1.999147   1.096578   7.755083
    33  H    7.446108   8.335746   8.112371   6.928399   1.125804
    34  H    8.702637   9.717143   9.631846   8.503351   1.139334
    35  H    8.138887   9.109088   8.990840   7.907818   2.254133
    36  H    8.096071   8.891884   8.530922   7.319143   2.246226
    37  H    9.343200  10.255582  10.009812   8.820524   2.109605
    38  H    5.306135   5.762535   5.134194   3.862249   4.346566
    39  H    4.763701   4.823639   3.890415   2.622829   6.001515
    40  H    5.033037   5.151967   4.394982   3.263945   6.000047
    41  H    6.001407   6.428115   5.805639   4.547849   4.351977
    42  H    6.432238   6.542328   5.620133   4.368957   5.731544
                   21         22         23         24         25
    21  C    0.000000
    22  C    5.189794   0.000000
    23  C    5.677165   1.525557   0.000000
    24  H    2.986729   2.571180   3.184047   0.000000
    25  H    6.527081   8.200216   8.934176   6.211670   0.000000
    26  H    6.657083   9.697181  10.387212   7.375207   2.428642
    27  H    5.405635   9.473019   9.993246   6.937764   4.177275
    28  H    3.296485   7.591439   7.930713   5.024521   4.903572
    29  H    8.586522   5.516601   6.400484   6.023071   6.788987
    30  H   10.223020   6.034555   6.733707   7.437265   9.312900
    31  H    9.849007   4.958907   5.495979   7.046032  10.501734
    32  H    8.001141   2.883889   3.368732   5.263870   9.827663
    33  H    2.264214   4.351545   4.351401   2.143485   6.441742
    34  H    2.169644   6.018139   6.116593   3.590415   5.997436
    35  H    1.100749   5.531629   6.262763   3.359340   6.073106
    36  H    1.100923   4.583162   5.075679   2.819583   7.356106
    37  H    1.120968   6.114889   6.441458   3.984221   7.190436
    38  H    4.290776   1.119952   2.250653   2.110187   7.988964
    39  H    6.036552   1.132668   2.066704   3.621549   9.123842
    40  H    6.613166   2.208676   1.177521   3.903100   9.096967
    41  H    4.944734   2.119725   1.127094   2.649682   8.405884
    42  H    6.013839   2.255618   1.067750   3.900682   9.871883
                   26         27         28         29         30
    26  H    0.000000
    27  H    2.378373   0.000000
    28  H    4.219491   2.458907   0.000000
    29  H    9.100348  10.209095   9.471477   0.000000
    30  H   11.600413  12.568620  11.584227   2.544314   0.000000
    31  H   12.609822  13.170808  11.791658   4.281172   2.434263
    32  H   11.701666  11.887895  10.230690   4.837575   4.081634
    33  H    7.053687   6.028021   3.722470   7.845328   9.378281
    34  H    6.017854   4.571407   2.134027   8.934293  10.732133
    35  H    6.131623   5.054482   3.345490   8.390193  10.135708
    36  H    7.663390   6.497295   4.385961   8.564487   9.967047
    37  H    6.993353   5.395583   3.218151   9.683047  11.314517
    38  H    9.264520   8.879881   6.963890   6.100455   6.844628
    39  H   10.655390  10.473437   8.617852   5.760196   5.846690
    40  H   10.740535  10.531247   8.569283   5.958119   6.087653
    41  H    9.707783   9.160831   7.017852   6.788380   7.454142
    42  H   11.206632  10.647693   8.473716   7.384955   7.528365
                   31         32         33         34         35
    31  H    0.000000
    32  H    2.254216   0.000000
    33  H    9.000495   7.130614   0.000000
    34  H   10.572582   8.789857   1.766668   0.000000
    35  H    9.911777   8.203616   3.140940   2.889587   0.000000
    36  H    9.351033   7.398689   2.515849   3.007530   1.761903
    37  H   10.881896   8.968446   2.780764   2.173350   1.836387
    38  H    5.849063   3.813921   3.858737   5.420664   4.594640
    39  H    4.398197   2.228702   5.398856   7.052093   6.316541
    40  H    4.907468   3.018331   5.088080   6.829388   7.168301
    41  H    6.460588   4.405017   3.368798   5.129698   5.649224
    42  H    6.030267   3.833430   4.798724   6.543076   6.677524
                   36         37         38         39         40
    36  H    0.000000
    37  H    1.724279   0.000000
    38  H    3.594602   5.211434   0.000000
    39  H    5.312562   6.940600   1.746848   0.000000
    40  H    6.113821   7.406955   3.190423   2.594023   0.000000
    41  H    4.455241   5.633193   2.467476   2.968515   1.886958
    42  H    5.282301   6.657857   2.721854   2.430271   1.877414
                   41         42
    41  H    0.000000
    42  H    1.664166   0.000000
 Stoichiometry    C19H19N2S2(1+)
 Framework group  C1[X(C19H19N2S2)]
 Deg. of freedom   120
 Full point group                 C1      NOp   1
 Largest Abelian subgroup         C1      NOp   1
 Largest concise Abelian subgroup C1      NOp   1
                         Standard orientation:                         
 ---------------------------------------------------------------------
 Center     Atomic      Atomic             Coordinates (Angstroms)
 Number     Number       Type             X           Y           Z
 ---------------------------------------------------------------------
      1          6           0       -1.193395    0.111085   -0.188230
      2          6           0        0.017476    0.740628   -0.011050
      3          6           0        1.204500    0.198933   -0.005575
      4          7           0        2.318686    0.822257    0.120411
      5         16           0       -1.569857   -1.361508   -0.398062
      6          6           0       -3.000297   -1.159888   -0.067290
      7          6           0       -3.345913    0.131662   -0.174945
      8          7           0       -2.275420    0.890800   -0.227164
      9         16           0        1.455995   -1.251199   -0.097712
     10          6           0        2.926081   -1.107017    0.065225
     11          6           0        3.359069    0.146943    0.151458
     12          6           0       -3.860122   -2.156369    0.007411
     13          6           0       -5.134193   -1.866433    0.257327
     14          6           0       -5.520465   -0.571204    0.211206
     15          6           0       -4.651861    0.398461   -0.113759
     16          6           0        3.762330   -2.160959    0.163812
     17          6           0        5.072124   -1.964540    0.219301
     18          6           0        5.547009   -0.710130    0.324286
     19          6           0        4.698305    0.294171    0.246126
     20          6           0       -2.431354    2.443074   -0.242278
     21          6           0       -2.521371    3.088896    1.148909
     22          6           0        2.525252    2.295814    0.234266
     23          6           0        2.710193    3.088739   -1.055846
     24          1           0       -0.007511    1.880417    0.080903
     25          1           0       -3.510108   -3.247458   -0.065916
     26          1           0       -5.806599   -2.660320    0.462955
     27          1           0       -6.553339   -0.408584    0.293483
     28          1           0       -5.000447    1.420778   -0.243347
     29          1           0        3.274562   -3.169199    0.163128
     30          1           0        5.788724   -2.779305    0.140611
     31          1           0        6.616882   -0.502302    0.375235
     32          1           0        5.216760    1.260389    0.256638
     33          1           0       -1.632824    2.855124   -0.920511
     34          1           0       -3.388970    2.703404   -0.801994
     35          1           0       -2.717976    2.410694    1.993324
     36          1           0       -1.662495    3.710636    1.445226
     37          1           0       -3.332286    3.855165    1.040201
     38          1           0        1.745142    2.685501    0.937020
     39          1           0        3.480421    2.553544    0.785779
     40          1           0        3.361970    2.454268   -1.803636
     41          1           0        1.670541    3.221486   -1.470384
     42          1           0        2.996270    4.116481   -1.011175
 ---------------------------------------------------------------------
 Rotational constants (GHZ):      0.5351167      0.1358753      0.1112077
 Standard basis: 6-31G(d) (6D, 7F)
 There are   391 symmetry adapted basis functions of A   symmetry.
 Integral buffers will be    262144 words long.
 Raffenetti 2 integral format.
 Two-electron integral symmetry is turned on.
   391 basis functions,   768 primitive gaussians,   391 cartesian basis functions
    89 alpha electrons       89 beta electrons
       nuclear repulsion energy      2248.5015450669 Hartrees.
 NAtoms=   42 NActive=   42 NUniq=   42 SFac= 7.50D-01 NAtFMM=   80 NAOKFM=F Big=F
 One-electron integrals computed using PRISM.
 NBasis=   391 RedAO= T  NBF=   391
 NBsUse=   391 1.00D-06 NBFU=   391
 Harris functional with IExCor=  402 diagonalized for initial guess.
 ExpMin= 1.17D-01 ExpMax= 2.19D+04 ExpMxC= 3.30D+03 IAcc=1 IRadAn=         1 AccDes= 0.00D+00
 HarFok:  IExCor=  402 AccDes= 0.00D+00 IRadAn=         1 IDoV= 1
 ScaDFX=  1.000000  1.000000  1.000000  1.000000
 FoFCou: FMM=F IPFlag=           0 FMFlag=      100000 FMFlg1=           0
         NFxFlg=           0 DoJE=T BraDBF=F KetDBF=T FulRan=T
         Omega=  0.000000  0.000000  1.000000  0.000000  0.000000 ICntrl=     500 IOpCl=  0
         NMat0=    1 NMatS0=    1 NMatT0=    0 NMatD0=    1 NMtDS0=    0 NMtDT0=    0
         I1Cent=           4 NGrid=           0.
 Petite list used in FoFCou.
 Initial guess orbital symmetries:
       Occupied  (A) (A) (A) (A) (A) (A) (A) (A) (A) (A) (A) (A)
                 (A) (A) (A) (A) (A) (A) (A) (A) (A) (A) (A) (A)
                 (A) (A) (A) (A) (A) (A) (A) (A) (A) (A) (A) (A)
                 (A) (A) (A) (A) (A) (A) (A) (A) (A) (A) (A) (A)
                 (A) (A) (A) (A) (A) (A) (A) (A) (A) (A) (A) (A)
                 (A) (A) (A) (A) (A) (A) (A) (A) (A) (A) (A) (A)
                 (A) (A) (A) (A) (A) (A) (A) (A) (A) (A) (A) (A)
                 (A) (A) (A) (A) (A)
       Virtual   (A) (A) (A) (A) (A) (A) (A) (A) (A) (A) (A) (A)
                 (A) (A) (A) (A) (A) (A) (A) (A) (A) (A) (A) (A)
                 (A) (A) (A) (A) (A) (A) (A) (A) (A) (A) (A) (A)
                 (A) (A) (A) (A) (A) (A) (A) (A) (A) (A) (A) (A)
                 (A) (A) (A) (A) (A) (A) (A) (A) (A) (A) (A) (A)
                 (A) (A) (A) (A) (A) (A) (A) (A) (A) (A) (A) (A)
                 (A) (A) (A) (A) (A) (A) (A) (A) (A) (A) (A) (A)
                 (A) (A) (A) (A) (A) (A) (A) (A) (A) (A) (A) (A)
                 (A) (A) (A) (A) (A) (A) (A) (A) (A) (A) (A) (A)
                 (A) (A) (A) (A) (A) (A) (A) (A) (A) (A) (A) (A)
                 (A) (A) (A) (A) (A) (A) (A) (A) (A) (A) (A) (A)
                 (A) (A) (A) (A) (A) (A) (A) (A) (A) (A) (A) (A)
                 (A) (A) (A) (A) (A) (A) (A) (A) (A) (A) (A) (A)
                 (A) (A) (A) (A) (A) (A) (A) (A) (A) (A) (A) (A)
                 (A) (A) (A) (A) (A) (A) (A) (A) (A) (A) (A) (A)
                 (A) (A) (A) (A) (A) (A) (A) (A) (A) (A) (A) (A)
                 (A) (A) (A) (A) (A) (A) (A) (A) (A) (A) (A) (A)
                 (A) (A) (A) (A) (A) (A) (A) (A) (A) (A) (A) (A)
                 (A) (A) (A) (A) (A) (A) (A) (A) (A) (A) (A) (A)
                 (A) (A) (A) (A) (A) (A) (A) (A) (A) (A) (A) (A)
                 (A) (A) (A) (A) (A) (A) (A) (A) (A) (A) (A) (A)
                 (A) (A) (A) (A) (A) (A) (A) (A) (A) (A) (A) (A)
                 (A) (A) (A) (A) (A) (A) (A) (A) (A) (A) (A) (A)
                 (A) (A) (A) (A) (A) (A) (A) (A) (A) (A) (A) (A)
                 (A) (A) (A) (A) (A) (A) (A) (A) (A) (A) (A) (A)
                 (A) (A)
 The electronic state of the initial guess is 1-A.
 Requested convergence on RMS density matrix=1.00D-08 within 128 cycles.
 Requested convergence on MAX density matrix=1.00D-06.
 Requested convergence on             energy=1.00D-06.
 No special actions if energy rises.
 Integral accuracy reduced to 1.0D-05 until final iterations.
 Initial convergence to 1.0D-05 achieved.  Increase integral accuracy.
 SCF Done:  E(RB3LYP) =  -1640.78142397     A.U. after   16 cycles
             Convg  =    0.4857D-08             -V/T =  2.0029

 **********************************************************************

            Population analysis using the SCF density.

 **********************************************************************

 Orbital symmetries:
       Occupied  (A) (A) (A) (A) (A) (A) (A) (A) (A) (A) (A) (A)
                 (A) (A) (A) (A) (A) (A) (A) (A) (A) (A) (A) (A)
                 (A) (A) (A) (A) (A) (A) (A) (A) (A) (A) (A) (A)
                 (A) (A) (A) (A) (A) (A) (A) (A) (A) (A) (A) (A)
                 (A) (A) (A) (A) (A) (A) (A) (A) (A) (A) (A) (A)
                 (A) (A) (A) (A) (A) (A) (A) (A) (A) (A) (A) (A)
                 (A) (A) (A) (A) (A) (A) (A) (A) (A) (A) (A) (A)
                 (A) (A) (A) (A) (A)
       Virtual   (A) (A) (A) (A) (A) (A) (A) (A) (A) (A) (A) (A)
                 (A) (A) (A) (A) (A) (A) (A) (A) (A) (A) (A) (A)
                 (A) (A) (A) (A) (A) (A) (A) (A) (A) (A) (A) (A)
                 (A) (A) (A) (A) (A) (A) (A) (A) (A) (A) (A) (A)
                 (A) (A) (A) (A) (A) (A) (A) (A) (A) (A) (A) (A)
                 (A) (A) (A) (A) (A) (A) (A) (A) (A) (A) (A) (A)
                 (A) (A) (A) (A) (A) (A) (A) (A) (A) (A) (A) (A)
                 (A) (A) (A) (A) (A) (A) (A) (A) (A) (A) (A) (A)
                 (A) (A) (A) (A) (A) (A) (A) (A) (A) (A) (A) (A)
                 (A) (A) (A) (A) (A) (A) (A) (A) (A) (A) (A) (A)
                 (A) (A) (A) (A) (A) (A) (A) (A) (A) (A) (A) (A)
                 (A) (A) (A) (A) (A) (A) (A) (A) (A) (A) (A) (A)
                 (A) (A) (A) (A) (A) (A) (A) (A) (A) (A) (A) (A)
                 (A) (A) (A) (A) (A) (A) (A) (A) (A) (A) (A) (A)
                 (A) (A) (A) (A) (A) (A) (A) (A) (A) (A) (A) (A)
                 (A) (A) (A) (A) (A) (A) (A) (A) (A) (A) (A) (A)
                 (A) (A) (A) (A) (A) (A) (A) (A) (A) (A) (A) (A)
                 (A) (A) (A) (A) (A) (A) (A) (A) (A) (A) (A) (A)
                 (A) (A) (A) (A) (A) (A) (A) (A) (A) (A) (A) (A)
                 (A) (A) (A) (A) (A) (A) (A) (A) (A) (A) (A) (A)
                 (A) (A) (A) (A) (A) (A) (A) (A) (A) (A) (A) (A)
                 (A) (A) (A) (A) (A) (A) (A) (A) (A) (A) (A) (A)
                 (A) (A) (A) (A) (A) (A) (A) (A) (A) (A) (A) (A)
                 (A) (A) (A) (A) (A) (A) (A) (A) (A) (A) (A) (A)
                 (A) (A) (A) (A) (A) (A) (A) (A) (A) (A) (A) (A)
                 (A) (A)
 The electronic state is 1-A.
 Alpha  occ. eigenvalues --  -89.02805 -89.02247 -14.52644 -14.52225 -10.38362
 Alpha  occ. eigenvalues --  -10.37868 -10.37083 -10.36271 -10.34033 -10.33909
 Alpha  occ. eigenvalues --  -10.31040 -10.30962 -10.30874 -10.30687 -10.30671
 Alpha  occ. eigenvalues --  -10.30003 -10.29722 -10.29561 -10.29464 -10.28729
 Alpha  occ. eigenvalues --  -10.28711 -10.28177 -10.28174  -8.10483  -8.10311
 Alpha  occ. eigenvalues --   -6.06805  -6.06597  -6.06373  -6.06161  -6.06041
 Alpha  occ. eigenvalues --   -6.05855  -1.22680  -1.18499  -1.04489  -1.03269
 Alpha  occ. eigenvalues --   -1.01372  -0.99342  -0.94836  -0.90247  -0.89834
 Alpha  occ. eigenvalues --   -0.89513  -0.87257  -0.86647  -0.83782  -0.78896
 Alpha  occ. eigenvalues --   -0.78775  -0.78158  -0.77124  -0.74262  -0.72267
 Alpha  occ. eigenvalues --   -0.71399  -0.70865  -0.65857  -0.65139  -0.64871
 Alpha  occ. eigenvalues --   -0.64010  -0.62979  -0.62184  -0.61379  -0.58913
 Alpha  occ. eigenvalues --   -0.57652  -0.57238  -0.57140  -0.56668  -0.55941
 Alpha  occ. eigenvalues --   -0.54881  -0.54438  -0.53462  -0.52920  -0.52626
 Alpha  occ. eigenvalues --   -0.51876  -0.50868  -0.50415  -0.49471  -0.48962
 Alpha  occ. eigenvalues --   -0.48474  -0.48072  -0.47471  -0.46744  -0.46489
 Alpha  occ. eigenvalues --   -0.45930  -0.45144  -0.44433  -0.44336  -0.41696
 Alpha  occ. eigenvalues --   -0.37316  -0.35593  -0.35183  -0.30062
 Alpha virt. eigenvalues --   -0.16622  -0.11618  -0.10695  -0.10103  -0.08976
 Alpha virt. eigenvalues --   -0.08424  -0.06498  -0.05779  -0.03777  -0.03023
 Alpha virt. eigenvalues --   -0.02814  -0.01734  -0.00992  -0.00151   0.00869
 Alpha virt. eigenvalues --    0.01303   0.01588   0.01674   0.02539   0.03091
 Alpha virt. eigenvalues --    0.03842   0.04321   0.04738   0.05453   0.06156
 Alpha virt. eigenvalues --    0.06893   0.07537   0.08080   0.08319   0.09110
 Alpha virt. eigenvalues --    0.10076   0.10689   0.11076   0.11324   0.12015
 Alpha virt. eigenvalues --    0.13005   0.13362   0.14992   0.16617   0.17333
 Alpha virt. eigenvalues --    0.19097   0.19986   0.20715   0.21376   0.22857
 Alpha virt. eigenvalues --    0.24129   0.25448   0.25552   0.26678   0.27127
 Alpha virt. eigenvalues --    0.28446   0.29836   0.32159   0.32538   0.35458
 Alpha virt. eigenvalues --    0.35980   0.36562   0.37236   0.38511   0.38853
 Alpha virt. eigenvalues --    0.39885   0.40860   0.41113   0.42395   0.42633
 Alpha virt. eigenvalues --    0.42938   0.43593   0.44954   0.45321   0.46185
 Alpha virt. eigenvalues --    0.47068   0.47383   0.48680   0.49234   0.49779
 Alpha virt. eigenvalues --    0.49828   0.50377   0.50890   0.50947   0.51381
 Alpha virt. eigenvalues --    0.51612   0.52164   0.52581   0.52990   0.53204
 Alpha virt. eigenvalues --    0.53973   0.54791   0.55199   0.55884   0.56500
 Alpha virt. eigenvalues --    0.57302   0.57739   0.59551   0.59817   0.61227
 Alpha virt. eigenvalues --    0.62009   0.62760   0.62992   0.63650   0.64413
 Alpha virt. eigenvalues --    0.65540   0.66690   0.67582   0.68902   0.69213
 Alpha virt. eigenvalues --    0.69823   0.70429   0.71019   0.71360   0.72039
 Alpha virt. eigenvalues --    0.72618   0.73432   0.74165   0.74676   0.75518
 Alpha virt. eigenvalues --    0.76135   0.77092   0.77534   0.78432   0.78786
 Alpha virt. eigenvalues --    0.79235   0.80075   0.81130   0.81470   0.82133
 Alpha virt. eigenvalues --    0.83936   0.84664   0.85303   0.86039   0.86588
 Alpha virt. eigenvalues --    0.87539   0.87984   0.88352   0.89159   0.89908
 Alpha virt. eigenvalues --    0.90679   0.91203   0.91903   0.92878   0.93189
 Alpha virt. eigenvalues --    0.94920   0.96621   0.98517   0.98712   1.01902
 Alpha virt. eigenvalues --    1.02881   1.04285   1.05751   1.06469   1.06912
 Alpha virt. eigenvalues --    1.08658   1.09749   1.11954   1.12863   1.14128
 Alpha virt. eigenvalues --    1.15846   1.16865   1.17392   1.18319   1.19017
 Alpha virt. eigenvalues --    1.20919   1.23997   1.24461   1.25117   1.26160
 Alpha virt. eigenvalues --    1.28373   1.29143   1.29821   1.31796   1.32454
 Alpha virt. eigenvalues --    1.33523   1.37037   1.38098   1.38949   1.39387
 Alpha virt. eigenvalues --    1.41448   1.42111   1.43977   1.43994   1.45477
 Alpha virt. eigenvalues --    1.47148   1.51541   1.51971   1.54537   1.55362
 Alpha virt. eigenvalues --    1.58217   1.58476   1.61529   1.62039   1.63604
 Alpha virt. eigenvalues --    1.64617   1.66951   1.68920   1.69498   1.71959
 Alpha virt. eigenvalues --    1.74054   1.74817   1.77722   1.78516   1.79896
 Alpha virt. eigenvalues --    1.80520   1.81037   1.82024   1.82163   1.84238
 Alpha virt. eigenvalues --    1.85222   1.87721   1.87871   1.91473   1.91910
 Alpha virt. eigenvalues --    1.92556   1.93979   1.95823   1.98197   1.99763
 Alpha virt. eigenvalues --    2.00042   2.01857   2.02348   2.04660   2.05645
 Alpha virt. eigenvalues --    2.07003   2.07771   2.08927   2.09761   2.11291
 Alpha virt. eigenvalues --    2.12326   2.14035   2.14613   2.15969   2.16326
 Alpha virt. eigenvalues --    2.17833   2.17869   2.18379   2.19938   2.20724
 Alpha virt. eigenvalues --    2.21880   2.23381   2.25231   2.25841   2.26214
 Alpha virt. eigenvalues --    2.28004   2.30309   2.32436   2.34514   2.36989
 Alpha virt. eigenvalues --    2.37448   2.43181   2.44961   2.46533   2.46711
 Alpha virt. eigenvalues --    2.49209   2.50952   2.52509   2.53805   2.54981
 Alpha virt. eigenvalues --    2.56525   2.57355   2.58239   2.63707   2.64903
 Alpha virt. eigenvalues --    2.68289   2.69188   2.70922   2.71300   2.72098
 Alpha virt. eigenvalues --    2.76255   2.77936   2.79540   2.80942   2.84374
 Alpha virt. eigenvalues --    2.91494   2.92089   2.96736   3.11763   3.19296
 Alpha virt. eigenvalues --    3.22166   3.26595   3.49414   3.56615   3.87219
 Alpha virt. eigenvalues --    3.89748   3.94403   3.99693   4.02869   4.03111
 Alpha virt. eigenvalues --    4.04132   4.04948   4.06239   4.10816   4.14714
 Alpha virt. eigenvalues --    4.19437   4.23212   4.26386   4.30943   4.32542
 Alpha virt. eigenvalues --    4.34444   4.38907   4.40106   4.55591   4.60245
 Alpha virt. eigenvalues --    4.69738   4.74957
          Condensed to atoms (all electrons):
              1          2          3          4          5          6
     1  C    4.924942   0.367591  -0.005576   0.005909   0.403980  -0.060774
     2  C    0.367591   5.544326   0.392985  -0.027648  -0.108150  -0.000215
     3  C   -0.005576   0.392985   4.731092   0.384421  -0.009039   0.000147
     4  N    0.005909  -0.027648   0.384421   7.055598   0.000460   0.000004
     5  S    0.403980  -0.108150  -0.009039   0.000460  15.403726   0.277733
     6  C   -0.060774  -0.000215   0.000147   0.000004   0.277733   5.172850
     7  C   -0.067493   0.016560   0.000139  -0.000001  -0.086165   0.434503
     8  N    0.327955  -0.033380   0.003286  -0.000127  -0.109754  -0.063935
     9  S   -0.013684  -0.165951   0.419944  -0.108227   0.017047  -0.000346
    10  C    0.000425   0.001607  -0.082724  -0.077396   0.000637  -0.000005
    11  C    0.000631   0.018088  -0.066950   0.266211  -0.000019   0.000000
    12  C   -0.000350  -0.000763   0.000001   0.000000  -0.115219   0.470046
    13  C    0.000157   0.000024   0.000000   0.000000   0.009317   0.015251
    14  C    0.000448   0.000000   0.000000   0.000000   0.000458  -0.073031
    15  C    0.007993  -0.000399   0.000004   0.000000   0.019495  -0.052385
    16  C   -0.000001  -0.000833   0.000553   0.016447   0.000039   0.000000
    17  C    0.000000   0.000030   0.000297   0.000062   0.000000   0.000000
    18  C    0.000000   0.000002   0.000439   0.006443   0.000000   0.000000
    19  C    0.000008  -0.000623   0.003452  -0.115719   0.000000   0.000000
    20  C   -0.032045  -0.010454   0.000094   0.000019   0.005833   0.007771
    21  C    0.002115   0.000442  -0.000088   0.000001  -0.000063  -0.000840
    22  C    0.000347  -0.008315  -0.044249   0.272801  -0.000016   0.000000
    23  C   -0.000073  -0.001296   0.001782  -0.039546   0.000000   0.000000
    24  H   -0.031540   0.326756  -0.016695  -0.016536   0.003629   0.000034
    25  H    0.000130  -0.000003   0.000000   0.000000  -0.002500  -0.055272
    26  H   -0.000001   0.000000   0.000000   0.000000  -0.000337   0.005594
    27  H    0.000006   0.000000   0.000000   0.000000   0.000013   0.001066
    28  H   -0.000559   0.000002   0.000000   0.000000  -0.000657   0.009752
    29  H    0.000002  -0.000010   0.000147  -0.000306   0.000002   0.000000
    30  H    0.000000   0.000000   0.000001   0.000012   0.000000   0.000000
    31  H    0.000000   0.000000   0.000003  -0.000111   0.000000   0.000000
    32  H    0.000000  -0.000003  -0.000461  -0.007059   0.000000   0.000000
    33  H   -0.003718   0.002992   0.000290  -0.000007  -0.000368  -0.000185
    34  H    0.002390   0.000161  -0.000003   0.000000  -0.000350   0.000414
    35  H    0.000719  -0.000056  -0.000020   0.000000  -0.000009  -0.000252
    36  H    0.000250  -0.000233  -0.000003   0.000000  -0.000005   0.000023
    37  H   -0.000131   0.000033   0.000001   0.000000   0.000006   0.000015
    38  H    0.000387   0.005363  -0.007433  -0.037020  -0.000006   0.000000
    39  H   -0.000013   0.000030   0.003720  -0.028953   0.000000   0.000000
    40  H    0.000003   0.000051   0.000136  -0.006141   0.000000   0.000000
    41  H   -0.000140   0.000698   0.002167  -0.003421  -0.000002   0.000000
    42  H    0.000001   0.000012  -0.000137   0.002602   0.000000   0.000000
              7          8          9         10         11         12
     1  C   -0.067493   0.327955  -0.013684   0.000425   0.000631  -0.000350
     2  C    0.016560  -0.033380  -0.165951   0.001607   0.018088  -0.000763
     3  C    0.000139   0.003286   0.419944  -0.082724  -0.066950   0.000001
     4  N   -0.000001  -0.000127  -0.108227  -0.077396   0.266211   0.000000
     5  S   -0.086165  -0.109754   0.017047   0.000637  -0.000019  -0.115219
     6  C    0.434503  -0.063935  -0.000346  -0.000005   0.000000   0.470046
     7  C    4.681758   0.261601  -0.000067   0.000000   0.000000   0.011269
     8  N    0.261601   7.106263   0.001540   0.000004  -0.000002   0.016022
     9  S   -0.000067   0.001540  15.447345   0.331384  -0.107140   0.000047
    10  C    0.000000   0.000004   0.331384   5.176989   0.444381   0.000000
    11  C    0.000000  -0.000002  -0.107140   0.444381   4.696473   0.000000
    12  C    0.011269   0.016022   0.000047   0.000000   0.000000   5.063729
    13  C   -0.068655  -0.000187   0.000003   0.000000   0.000000   0.516333
    14  C    0.029734   0.006430  -0.000001   0.000000   0.000000  -0.016673
    15  C    0.474183  -0.107362  -0.000001   0.000000   0.000000  -0.078496
    16  C    0.000000   0.000000  -0.103607   0.475058   0.014785   0.000000
    17  C    0.000000   0.000000   0.008050   0.001749  -0.066947   0.000000
    18  C    0.000000   0.000000   0.000929  -0.052501   0.019854   0.000000
    19  C    0.000000   0.000000   0.015276  -0.057650   0.460981   0.000000
    20  C   -0.041925   0.261656  -0.000011   0.000000   0.000001  -0.000041
    21  C    0.000321  -0.044240  -0.000002   0.000000   0.000000  -0.000016
    22  C    0.000000   0.000012   0.009955   0.013970  -0.061201   0.000000
    23  C    0.000000   0.000003  -0.000134  -0.000728  -0.001431   0.000000
    24  H   -0.000317  -0.013171   0.007195   0.000124  -0.001272   0.000008
    25  H    0.005097  -0.000133   0.000002   0.000000   0.000000   0.359175
    26  H    0.001507   0.000011   0.000000   0.000000   0.000000  -0.043605
    27  H    0.004111  -0.000127   0.000000   0.000000   0.000000   0.007520
    28  H   -0.049030  -0.010051   0.000000   0.000000   0.000000   0.001107
    29  H    0.000000   0.000000  -0.004102  -0.057123   0.006669   0.000000
    30  H    0.000000   0.000000  -0.000315   0.004483   0.001887   0.000000
    31  H    0.000000   0.000000   0.000037   0.001115   0.004039   0.000000
    32  H    0.000000   0.000000  -0.000484   0.006961  -0.052075   0.000000
    33  H    0.002696  -0.030149  -0.000016   0.000000   0.000000   0.000004
    34  H   -0.005472  -0.026806   0.000000   0.000000   0.000000   0.000025
    35  H    0.001998  -0.005539   0.000000   0.000000   0.000000  -0.000009
    36  H   -0.000116   0.001045   0.000000   0.000000   0.000000   0.000000
    37  H    0.000153   0.002720   0.000000   0.000000   0.000000   0.000000
    38  H    0.000001  -0.000024  -0.000337  -0.000929   0.005844   0.000000
    39  H    0.000000   0.000000  -0.000307   0.000967  -0.008073   0.000000
    40  H    0.000000   0.000000   0.000048  -0.000649   0.004156   0.000000
    41  H    0.000000  -0.000003  -0.000031   0.000050  -0.000249   0.000000
    42  H    0.000000   0.000000   0.000000   0.000011  -0.000059   0.000000
             13         14         15         16         17         18
     1  C    0.000157   0.000448   0.007993  -0.000001   0.000000   0.000000
     2  C    0.000024   0.000000  -0.000399  -0.000833   0.000030   0.000002
     3  C    0.000000   0.000000   0.000004   0.000553   0.000297   0.000439
     4  N    0.000000   0.000000   0.000000   0.016447   0.000062   0.006443
     5  S    0.009317   0.000458   0.019495   0.000039   0.000000   0.000000
     6  C    0.015251  -0.073031  -0.052385   0.000000   0.000000   0.000000
     7  C   -0.068655   0.029734   0.474183   0.000000   0.000000   0.000000
     8  N   -0.000187   0.006430  -0.107362   0.000000   0.000000   0.000000
     9  S    0.000003  -0.000001  -0.000001  -0.103607   0.008050   0.000929
    10  C    0.000000   0.000000   0.000000   0.475058   0.001749  -0.052501
    11  C    0.000000   0.000000   0.000000   0.014785  -0.066947   0.019854
    12  C    0.516333  -0.016673  -0.078496   0.000000   0.000000   0.000000
    13  C    4.833180   0.537638  -0.017567   0.000000   0.000000   0.000000
    14  C    0.537638   4.840830   0.521341   0.000000   0.000000   0.000000
    15  C   -0.017567   0.521341   5.065008   0.000000   0.000000   0.000000
    16  C    0.000000   0.000000   0.000000   5.015252   0.530478  -0.019407
    17  C    0.000000   0.000000   0.000000   0.530478   4.841251   0.545364
    18  C    0.000000   0.000000   0.000000  -0.019407   0.545364   4.789570
    19  C    0.000000   0.000000   0.000000  -0.079777  -0.024852   0.550323
    20  C   -0.000017   0.000346  -0.002556   0.000000   0.000000   0.000000
    21  C    0.000005  -0.000073   0.002155   0.000000   0.000000   0.000000
    22  C    0.000000   0.000000   0.000000  -0.000140  -0.000036   0.000379
    23  C    0.000000   0.000000   0.000000  -0.000004   0.000002   0.000010
    24  H    0.000000   0.000000  -0.000026   0.000014   0.000000   0.000000
    25  H   -0.033852   0.005410   0.000612   0.000000   0.000000   0.000000
    26  H    0.366807  -0.040719   0.005793   0.000000   0.000000   0.000000
    27  H   -0.044562   0.369701  -0.041254   0.000000   0.000000   0.000000
    28  H    0.005290  -0.040599   0.349602   0.000000   0.000000   0.000000
    29  H    0.000000   0.000000   0.000000   0.360589  -0.035376   0.004736
    30  H    0.000000   0.000000   0.000000  -0.039571   0.359874  -0.041492
    31  H    0.000000   0.000000   0.000000   0.005546  -0.039835   0.362986
    32  H    0.000000   0.000000   0.000000   0.001571   0.006943  -0.041287
    33  H    0.000001  -0.000009   0.000165   0.000000   0.000000   0.000000
    34  H   -0.000017   0.000309   0.001339   0.000000   0.000000   0.000000
    35  H    0.000004  -0.000045   0.000885   0.000000   0.000000   0.000000
    36  H    0.000000   0.000001  -0.000013   0.000000   0.000000   0.000000
    37  H    0.000000  -0.000016  -0.000299   0.000000   0.000000   0.000000
    38  H    0.000000   0.000000   0.000000   0.000010   0.000001  -0.000010
    39  H    0.000000   0.000000   0.000000   0.000014  -0.000015   0.000245
    40  H    0.000000   0.000000   0.000000  -0.000013   0.000005  -0.000036
    41  H    0.000000   0.000000   0.000000   0.000000   0.000000   0.000000
    42  H    0.000000   0.000000   0.000000   0.000000   0.000000  -0.000001
             19         20         21         22         23         24
     1  C    0.000008  -0.032045   0.002115   0.000347  -0.000073  -0.031540
     2  C   -0.000623  -0.010454   0.000442  -0.008315  -0.001296   0.326756
     3  C    0.003452   0.000094  -0.000088  -0.044249   0.001782  -0.016695
     4  N   -0.115719   0.000019   0.000001   0.272801  -0.039546  -0.016536
     5  S    0.000000   0.005833  -0.000063  -0.000016   0.000000   0.003629
     6  C    0.000000   0.007771  -0.000840   0.000000   0.000000   0.000034
     7  C    0.000000  -0.041925   0.000321   0.000000   0.000000  -0.000317
     8  N    0.000000   0.261656  -0.044240   0.000012   0.000003  -0.013171
     9  S    0.015276  -0.000011  -0.000002   0.009955  -0.000134   0.007195
    10  C   -0.057650   0.000000   0.000000   0.013970  -0.000728   0.000124
    11  C    0.460981   0.000001   0.000000  -0.061201  -0.001431  -0.001272
    12  C    0.000000  -0.000041  -0.000016   0.000000   0.000000   0.000008
    13  C    0.000000  -0.000017   0.000005   0.000000   0.000000   0.000000
    14  C    0.000000   0.000346  -0.000073   0.000000   0.000000   0.000000
    15  C    0.000000  -0.002556   0.002155   0.000000   0.000000  -0.000026
    16  C   -0.079777   0.000000   0.000000  -0.000140  -0.000004   0.000014
    17  C   -0.024852   0.000000   0.000000  -0.000036   0.000002   0.000000
    18  C    0.550323   0.000000   0.000000   0.000379   0.000010   0.000000
    19  C    5.059994   0.000000   0.000000  -0.004277   0.000904  -0.000030
    20  C    0.000000   4.996720   0.333729  -0.000015  -0.000032   0.005770
    21  C    0.000000   0.333729   5.118823  -0.000038   0.000004   0.000258
    22  C   -0.004277  -0.000015  -0.000038   5.032200   0.349763   0.007874
    23  C    0.000904  -0.000032   0.000004   0.349763   5.110320  -0.000572
    24  H   -0.000030   0.005770   0.000258   0.007874  -0.000572   0.564091
    25  H    0.000000   0.000003   0.000000   0.000000   0.000000   0.000000
    26  H    0.000000   0.000000   0.000000   0.000000   0.000000   0.000000
    27  H    0.000000  -0.000002  -0.000002   0.000000   0.000000   0.000000
    28  H    0.000000   0.002325   0.000098   0.000000   0.000000  -0.000001
    29  H    0.000833   0.000000   0.000000   0.000009   0.000000   0.000000
    30  H    0.006509   0.000000   0.000000   0.000000   0.000000   0.000000
    31  H   -0.035887   0.000000   0.000000  -0.000006  -0.000001   0.000000
    32  H    0.350458   0.000000   0.000000   0.000652   0.000178  -0.000001
    33  H    0.000000   0.364621  -0.033893   0.000007   0.000029   0.001361
    34  H    0.000000   0.379790  -0.045124   0.000000   0.000000   0.000097
    35  H    0.000000  -0.028833   0.380585   0.000000   0.000000  -0.000169
    36  H    0.000000  -0.026733   0.375280  -0.000021   0.000000   0.000963
    37  H    0.000000  -0.035890   0.374806   0.000000   0.000000  -0.000018
    38  H    0.000614  -0.000010   0.000101   0.363400  -0.031327   0.002873
    39  H    0.003560   0.000000   0.000000   0.375315  -0.057441  -0.000012
    40  H    0.002341   0.000000   0.000000  -0.036499   0.372154  -0.000032
    41  H   -0.000042  -0.000073  -0.000009  -0.044476   0.366951   0.001582
    42  H   -0.000104   0.000001   0.000000  -0.019093   0.379847  -0.000022
             25         26         27         28         29         30
     1  C    0.000130  -0.000001   0.000006  -0.000559   0.000002   0.000000
     2  C   -0.000003   0.000000   0.000000   0.000002  -0.000010   0.000000
     3  C    0.000000   0.000000   0.000000   0.000000   0.000147   0.000001
     4  N    0.000000   0.000000   0.000000   0.000000  -0.000306   0.000012
     5  S   -0.002500  -0.000337   0.000013  -0.000657   0.000002   0.000000
     6  C   -0.055272   0.005594   0.001066   0.009752   0.000000   0.000000
     7  C    0.005097   0.001507   0.004111  -0.049030   0.000000   0.000000
     8  N   -0.000133   0.000011  -0.000127  -0.010051   0.000000   0.000000
     9  S    0.000002   0.000000   0.000000   0.000000  -0.004102  -0.000315
    10  C    0.000000   0.000000   0.000000   0.000000  -0.057123   0.004483
    11  C    0.000000   0.000000   0.000000   0.000000   0.006669   0.001887
    12  C    0.359175  -0.043605   0.007520   0.001107   0.000000   0.000000
    13  C   -0.033852   0.366807  -0.044562   0.005290   0.000000   0.000000
    14  C    0.005410  -0.040719   0.369701  -0.040599   0.000000   0.000000
    15  C    0.000612   0.005793  -0.041254   0.349602   0.000000   0.000000
    16  C    0.000000   0.000000   0.000000   0.000000   0.360589  -0.039571
    17  C    0.000000   0.000000   0.000000   0.000000  -0.035376   0.359874
    18  C    0.000000   0.000000   0.000000   0.000000   0.004736  -0.041492
    19  C    0.000000   0.000000   0.000000   0.000000   0.000833   0.006509
    20  C    0.000003   0.000000  -0.000002   0.002325   0.000000   0.000000
    21  C    0.000000   0.000000  -0.000002   0.000098   0.000000   0.000000
    22  C    0.000000   0.000000   0.000000   0.000000   0.000009   0.000000
    23  C    0.000000   0.000000   0.000000   0.000000   0.000000   0.000000
    24  H    0.000000   0.000000   0.000000  -0.000001   0.000000   0.000000
    25  H    0.560846  -0.006088  -0.000229   0.000023   0.000000   0.000000
    26  H   -0.006088   0.555607  -0.007283  -0.000177   0.000000   0.000000
    27  H   -0.000229  -0.007283   0.553674  -0.006895   0.000000   0.000000
    28  H    0.000023  -0.000177  -0.006895   0.588914   0.000000   0.000000
    29  H    0.000000   0.000000   0.000000   0.000000   0.572301  -0.005485
    30  H    0.000000   0.000000   0.000000   0.000000  -0.005485   0.558749
    31  H    0.000000   0.000000   0.000000   0.000000  -0.000177  -0.006003
    32  H    0.000000   0.000000   0.000000   0.000000   0.000028  -0.000341
    33  H    0.000000   0.000000   0.000000  -0.000046   0.000000   0.000000
    34  H    0.000000   0.000000   0.000003   0.003564   0.000000   0.000000
    35  H    0.000000   0.000000  -0.000001   0.000040   0.000000   0.000000
    36  H    0.000000   0.000000   0.000000   0.000002   0.000000   0.000000
    37  H    0.000000   0.000000   0.000000   0.000299   0.000000   0.000000
    38  H    0.000000   0.000000   0.000000   0.000000   0.000000   0.000000
    39  H    0.000000   0.000000   0.000000   0.000000   0.000001   0.000000
    40  H    0.000000   0.000000   0.000000   0.000000   0.000000   0.000000
    41  H    0.000000   0.000000   0.000000   0.000000   0.000000   0.000000
    42  H    0.000000   0.000000   0.000000   0.000000   0.000000   0.000000
             31         32         33         34         35         36
     1  C    0.000000   0.000000  -0.003718   0.002390   0.000719   0.000250
     2  C    0.000000  -0.000003   0.002992   0.000161  -0.000056  -0.000233
     3  C    0.000003  -0.000461   0.000290  -0.000003  -0.000020  -0.000003
     4  N   -0.000111  -0.007059  -0.000007   0.000000   0.000000   0.000000
     5  S    0.000000   0.000000  -0.000368  -0.000350  -0.000009  -0.000005
     6  C    0.000000   0.000000  -0.000185   0.000414  -0.000252   0.000023
     7  C    0.000000   0.000000   0.002696  -0.005472   0.001998  -0.000116
     8  N    0.000000   0.000000  -0.030149  -0.026806  -0.005539   0.001045
     9  S    0.000037  -0.000484  -0.000016   0.000000   0.000000   0.000000
    10  C    0.001115   0.006961   0.000000   0.000000   0.000000   0.000000
    11  C    0.004039  -0.052075   0.000000   0.000000   0.000000   0.000000
    12  C    0.000000   0.000000   0.000004   0.000025  -0.000009   0.000000
    13  C    0.000000   0.000000   0.000001  -0.000017   0.000004   0.000000
    14  C    0.000000   0.000000  -0.000009   0.000309  -0.000045   0.000001
    15  C    0.000000   0.000000   0.000165   0.001339   0.000885  -0.000013
    16  C    0.005546   0.001571   0.000000   0.000000   0.000000   0.000000
    17  C   -0.039835   0.006943   0.000000   0.000000   0.000000   0.000000
    18  C    0.362986  -0.041287   0.000000   0.000000   0.000000   0.000000
    19  C   -0.035887   0.350458   0.000000   0.000000   0.000000   0.000000
    20  C    0.000000   0.000000   0.364621   0.379790  -0.028833  -0.026733
    21  C    0.000000   0.000000  -0.033893  -0.045124   0.380585   0.375280
    22  C   -0.000006   0.000652   0.000007   0.000000   0.000000  -0.000021
    23  C   -0.000001   0.000178   0.000029   0.000000   0.000000   0.000000
    24  H    0.000000  -0.000001   0.001361   0.000097  -0.000169   0.000963
    25  H    0.000000   0.000000   0.000000   0.000000   0.000000   0.000000
    26  H    0.000000   0.000000   0.000000   0.000000   0.000000   0.000000
    27  H    0.000000   0.000000   0.000000   0.000003  -0.000001   0.000000
    28  H    0.000000   0.000000  -0.000046   0.003564   0.000040   0.000002
    29  H   -0.000177   0.000028   0.000000   0.000000   0.000000   0.000000
    30  H   -0.006003  -0.000341   0.000000   0.000000   0.000000   0.000000
    31  H    0.549726  -0.010134   0.000000   0.000000   0.000000   0.000000
    32  H   -0.010134   0.591692   0.000000   0.000000   0.000000   0.000000
    33  H    0.000000   0.000000   0.537895  -0.031682   0.002582  -0.006959
    34  H    0.000000   0.000000  -0.031682   0.524729   0.000863   0.003887
    35  H    0.000000   0.000000   0.002582   0.000863   0.499292  -0.027683
    36  H    0.000000   0.000000  -0.006959   0.003887  -0.027683   0.535717
    37  H    0.000000   0.000000   0.003527  -0.009930  -0.018067  -0.033650
    38  H    0.000000  -0.000031  -0.000166   0.000000  -0.000002   0.000255
    39  H   -0.000004   0.004099   0.000000   0.000000   0.000000   0.000000
    40  H   -0.000002   0.000463  -0.000001   0.000000   0.000000   0.000000
    41  H    0.000000  -0.000011   0.000715   0.000000   0.000000  -0.000010
    42  H    0.000000   0.000051  -0.000005   0.000000   0.000000   0.000000
             37         38         39         40         41         42
     1  C   -0.000131   0.000387  -0.000013   0.000003  -0.000140   0.000001
     2  C    0.000033   0.005363   0.000030   0.000051   0.000698   0.000012
     3  C    0.000001  -0.007433   0.003720   0.000136   0.002167  -0.000137
     4  N    0.000000  -0.037020  -0.028953  -0.006141  -0.003421   0.002602
     5  S    0.000006  -0.000006   0.000000   0.000000  -0.000002   0.000000
     6  C    0.000015   0.000000   0.000000   0.000000   0.000000   0.000000
     7  C    0.000153   0.000001   0.000000   0.000000   0.000000   0.000000
     8  N    0.002720  -0.000024   0.000000   0.000000  -0.000003   0.000000
     9  S    0.000000  -0.000337  -0.000307   0.000048  -0.000031   0.000000
    10  C    0.000000  -0.000929   0.000967  -0.000649   0.000050   0.000011
    11  C    0.000000   0.005844  -0.008073   0.004156  -0.000249  -0.000059
    12  C    0.000000   0.000000   0.000000   0.000000   0.000000   0.000000
    13  C    0.000000   0.000000   0.000000   0.000000   0.000000   0.000000
    14  C   -0.000016   0.000000   0.000000   0.000000   0.000000   0.000000
    15  C   -0.000299   0.000000   0.000000   0.000000   0.000000   0.000000
    16  C    0.000000   0.000010   0.000014  -0.000013   0.000000   0.000000
    17  C    0.000000   0.000001  -0.000015   0.000005   0.000000   0.000000
    18  C    0.000000  -0.000010   0.000245  -0.000036   0.000000  -0.000001
[...]
 .00010169,-0.00003217,0.00001129,-0.00002285,-0.00003217,0.00005849,-0
 .00023067,0.00012651,0.00004515,-0.00011003,0.00094286,-0.00032385,0.0
 0000848,-0.00004098,-0.00001407,0.00001433,0.00001007,0.00000487,-0.00
 000813,-0.00000382,-0.00000569,0.00002687,-0.00001394,0.00001450,-0.00
 002865,0.00009544,-0.00003836,0.00005281,0.00009817,-0.00003194,0.0001
 5536,0.00001796,0.00018342,-0.00007862,0.00043289,0.00000750,-0.000160
 67,0.00003876,0.00005899,0.00006152,-0.00000824,-0.00001330,0.02262324
 ,-0.04360625,-0.05981967,0.01494780,-0.02572750,-0.00527175,-0.0021015
 8,0.00029667,-0.00166945,-0.00000145,0.00000245,-0.00000171,0.00000254
 ,-0.00000044,0.00000756,0.00000322,-0.00000253,0.00000022,-0.00000540,
 0.00000753,-0.00000095,0.00001278,0.00001001,-0.00001352,0.00002710,0.
 00001275,-0.00002185,-0.00001232,0.00001546,-0.00000080,0.00037319,-0.
 00015837,-0.00008537,0.00000458,-0.00002598,-0.00012737,0.00003948,-0.
 00001988,-0.00001081,0.00002801,-0.00001570,0.00001383,-0.00004434,0.0
 0002614,0.00007937,-0.00001366,0.00002991,-0.00000087,-0.02447688,0.04
 464258,0.06312023,0.00068562,-0.00032918,0.00018609,-0.00078145,0.0001
 8833,-0.00041748,0.00037741,-0.00384786,-0.00051334,-0.02414283,0.0005
 4667,-0.01817034,-0.00008353,-0.00011581,0.00001818,-0.00005936,0.0000
 5726,-0.00001989,-0.00004834,0.00003004,-0.00003705,-0.00004302,0.0002
 8928,-0.00014110,-0.00080641,-0.00026526,0.00004643,-0.00057989,0.0000
 2853,-0.00012022,-0.00040059,0.00176436,-0.00056924,0.00006963,0.00002
 614,0.00002532,-0.00001504,0.00007575,-0.00003610,-0.00008533,-0.00004
 250,-0.00000248,0.00003683,-0.00005674,0.00003007,0.00003788,0.0002235
 1,-0.00003380,0.00019839,0.00001451,0.00004174,0.00010283,-0.00018222,
 0.00010157,0.00047913,0.00111150,0.00015914,-0.00014644,-0.00011398,0.
 00003289,0.00003345,0.00000851,-0.00001653,-0.13857277,0.03153973,-0.1
 2129044,0.01299912,-0.00414629,0.01602214,-0.00002060,-0.00007404,0.00
 033665,0.00000217,-0.00000447,0.00000213,-0.00000311,0.00000329,-0.000
 00538,-0.00000573,0.00000285,-0.00000157,0.00000348,0.00000560,-0.0000
 0006,-0.00000666,0.00001084,-0.00002714,0.00002460,0.00001059,0.000010
 44,0.00000633,0.00000617,-0.00001676,0.00049503,0.00099751,-0.00003784
 ,0.00000903,0.00000026,0.00002011,-0.00000137,0.00002610,-0.00000114,-
 0.00000457,-0.00000340,-0.00000992,-0.00000340,-0.00002266,-0.00001712
 ,0.00000378,0.00002247,0.00000634,-0.00791539,0.00364945,-0.01125826,0
 .15864497,0.00013274,0.00041284,0.00012097,0.00023317,0.00014485,0.000
 26144,0.00045867,-0.00475765,0.00020440,-0.02469200,0.00161539,-0.0214
 0544,0.00007858,-0.00009110,0.00004193,0.00003702,0.00006422,-0.000028
 24,-0.00008899,0.00002314,-0.00001582,0.00003423,0.00002214,-0.0000317
 3,-0.00111718,-0.00044977,0.00043646,-0.00054436,0.00016476,-0.0003261
 9,-0.00032589,0.00122034,-0.00105637,0.00002146,-0.00002433,-0.0000014
 7,0.00000779,0.00002648,-0.00000722,-0.00002762,-0.00001357,-0.0000046
 7,0.00002783,-0.00002068,0.00001326,0.00005856,0.00034755,-0.00002999,
 0.00032347,0.00001185,0.00002053,0.00001375,-0.00036945,0.00056009,-0.
 00070345,-0.00153845,-0.00000914,-0.00010953,0.00000370,0.00002190,0.0
 0003126,0.00000372,-0.00002790,0.03998448,-0.06431231,0.04971734,0.000
 65188,0.00054012,-0.00027790,0.00002932,0.00037703,-0.00045363,-0.0000
 0047,0.00000010,0.00000016,0.00000040,0.00000048,0.00000387,0.00000030
 ,-0.00000034,0.00000072,-0.00000234,0.00000556,0.00000115,-0.00000232,
 0.00004022,0.00000214,0.00006809,0.00000693,-0.00004763,-0.00001721,0.
 00001349,0.00000453,0.00113998,-0.00265039,-0.00014260,0.00001208,-0.0
 0002132,-0.00003887,0.00001684,0.00000033,-0.00000451,0.00001180,-0.00
 001423,0.00000683,-0.00002119,0.00002325,0.00003724,-0.00000091,0.0000
 0786,0.00001185,0.01687342,-0.00460062,0.02303920,-0.03164763,0.072498
 41,0.00009690,0.00009507,0.00003019,0.00023657,0.00014159,0.00024840,0
 .00157488,-0.00026721,0.00018792,-0.00137311,-0.00159947,0.00181708,0.
 00000671,-0.00003190,0.00000872,-0.00001608,0.00001505,-0.00001581,0.0
 0001822,-0.00001235,0.00001158,-0.00002385,0.00001494,-0.00000066,0.00
 020357,-0.00009926,0.00007684,-0.00019081,-0.00001235,0.00003849,-0.00
 056231,0.00091887,0.00038186,0.00000754,-0.00000880,0.00000349,0.00000
 006,0.00000870,-0.00000215,-0.00000498,-0.00000599,0.00000161,-0.00000
 034,-0.00000184,0.00000257,0.00017230,-0.00008546,0.00007061,-0.000246
 26,0.00005854,-0.00007372,0.00061335,0.00037684,-0.00011588,-0.0006771
 6,0.00054078,-0.00012647,0.00004715,-0.00001635,-0.00001788,-0.0000154
 9,0.00000741,-0.00001267,-0.12637134,0.04363918,-0.21901189,-0.0150411
 5,0.00711883,-0.02298333,0.00003699,0.00000111,-0.00019931,-0.00000049
 ,-0.00000025,-0.00000095,-0.00000008,-0.00000087,0.00000016,0.00000004
 ,-0.00000007,-0.00000063,0.00000197,-0.00000351,-0.00000024,0.00002029
 ,-0.00001231,-0.00003216,0.00004487,0.00004203,0.00001688,-0.00001507,
 0.00000100,0.00001699,0.00056874,0.00050068,0.00062719,0.00000117,-0.0
 0000124,-0.00000900,0.00000314,-0.00000095,0.00000250,0.00000109,0.000
 00133,0.00001054,-0.00000469,0.00000143,0.00000983,0.00000125,-0.00000
 408,-0.00000165,0.00408215,-0.00051358,0.00621348,0.13324212,-0.050653
 66,0.23410273,-0.00013122,-0.00001507,-0.00002964,0.00020153,-0.000238
 97,0.00021557,-0.00075766,0.00048181,-0.00046546,0.00153406,0.00104956
 ,-0.00103357,-0.00001616,0.00003687,-0.00001733,-0.00001851,-0.0000298
 4,0.00000500,0.00004502,-0.00001423,0.00002373,-0.00002079,-0.00008797
 ,0.00003987,-0.00007963,-0.00009513,0.00005509,-0.00019260,-0.00014796
 ,0.00002719,-0.00024715,-0.00026497,0.00032796,-0.00001477,0.00000134,
 -0.00000549,-0.00000101,-0.00001857,0.00000695,0.00002158,0.00000973,0
 .00000120,-0.00001720,0.00001500,-0.00001146,-0.00000422,0.00009386,-0
 .00005397,0.00011281,0.00000848,0.00005913,0.00001103,-0.00021452,-0.0
 0004097,0.00013853,0.00004783,-0.00011588,0.00010603,0.00002583,-0.000
 02306,-0.00002609,-0.00001166,0.00002339,-0.01001080,0.01540710,0.0041
 6889,-0.10699342,0.10853683,0.01873385,0.00022343,-0.00016514,0.000009
 56,-0.00000124,0.00000109,0.00000060,-0.00000024,-0.00000026,0.0000004
 7,0.00000041,-0.00000009,0.00000064,0.00000102,-0.00000447,0.00000271,
 -0.00000293,0.00000660,-0.00000123,0.00000438,0.00000887,0.00001093,-0
 .00000158,0.00001975,-0.00000891,0.00009946,0.00006015,0.00012058,-0.0
 0000576,-0.00000615,0.00001975,-0.00001524,-0.00000287,0.00000150,-0.0
 0000304,0.00001049,-0.00000007,0.00001144,-0.00000087,-0.00001306,-0.0
 0000179,-0.00000557,-0.00000647,-0.00089132,-0.00055873,0.00319247,0.0
 0071100,-0.00066281,-0.00051406,0.11217238,-0.00010047,0.00003923,-0.0
 0003300,0.00005329,-0.00008029,0.00001841,-0.00021374,-0.00001791,-0.0
 0020014,0.00045554,0.00136359,-0.00022239,0.00003376,0.00002052,0.0000
 0021,0.00001918,0.00000555,0.00000207,-0.00003752,0.00001013,-0.000015
 72,0.00005432,-0.00003098,0.00002193,0.00007263,0.00011218,0.00000661,
 0.00005830,0.00011339,-0.00006014,0.00007684,-0.00008609,0.00007408,-0
 .00001135,-0.00000534,-0.00000004,0.00000545,-0.00000948,0.00000524,0.
 00000757,0.00000811,-0.00000087,0.00000312,0.00000043,0.00000112,0.000
 01829,-0.00005190,0.00002184,-0.00003605,-0.00001129,-0.00001085,-0.00
 002549,0.00000431,0.00000455,0.00013580,-0.00002462,0.00026909,-0.0000
 5818,0.00000800,0.00001070,0.00001224,-0.00000475,0.00000033,-0.002852
 06,0.00307715,0.00063411,0.10969109,-0.25602362,-0.03834060,-0.0000477
 7,0.00001083,0.00000719,-0.00000003,0.00000106,-0.00000105,0.00000190,
 -0.00000076,0.00000035,0.00000135,-0.00000131,0.00000023,-0.00000312,0
 .00000357,-0.00000332,-0.00000368,0.00000731,0.00001181,-0.00000442,-0
 .00000127,-0.00000815,0.,0.00001305,-0.00000313,-0.00003517,0.00001221
 ,0.00002001,-0.00000639,-0.00001271,-0.00002413,0.00001056,-0.00000323
 ,-0.00000077,0.00001096,-0.00000202,-0.00000024,-0.00001011,-0.0000054
 3,0.00001178,-0.00000798,0.00001787,-0.00000340,-0.00100449,0.00124632
 ,0.00107098,0.00017955,0.00020381,-0.00056168,-0.11960356,0.27374823,0
 .00013496,-0.00003470,0.00008196,-0.00028307,0.00013619,0.00017085,0.0
 0000468,0.00012482,0.00012485,-0.00166243,-0.00010870,0.00131624,-0.00
 003150,-0.00004019,0.00000072,-0.00001657,0.00000917,-0.00001082,0.000
 01849,-0.00000608,0.00002051,-0.00005088,0.00005984,-0.00002226,-0.000
 02424,0.00008069,-0.00007211,0.00015946,0.00012792,-0.00001451,0.00046
 587,-0.00026751,0.00019346,0.00001544,-0.00000201,-0.00000174,-0.00000
 522,0.00001391,-0.00000594,-0.00001250,-0.00000890,0.00000009,0.000002
 20,-0.00000354,0.00000388,-0.00002839,-0.00009732,0.00002422,-0.000065
 87,-0.00002188,-0.00005872,-0.00017203,0.00016067,0.00000083,0.0001674
 3,0.00021731,0.00009146,0.00009562,-0.00005978,-0.00003325,-0.00002925
 ,0.00002504,-0.00004365,0.01431649,-0.02785953,-0.00636125,0.01905130,
 -0.03610118,-0.05635184,0.00008132,-0.00003718,-0.00032394,-0.00000047
 ,-0.00000107,0.00000044,-0.00000130,0.00000083,0.00000048,-0.00000118,
 0.00000064,-0.00000080,0.00000240,-0.00000224,0.00000029,-0.00000637,0
 .00000300,-0.00000345,-0.00002506,-0.00001962,-0.00000367,0.00000563,0
 .00001108,0.00000620,-0.00009716,0.00002738,-0.00048026,0.00001195,0.0
 0000185,0.00001360,-0.00000596,0.00001133,0.00001021,0.00000144,0.0000
 0138,0.00002091,-0.00000768,0.00000140,0.00001163,0.00000401,-0.000007
 12,0.00000289,0.00339913,0.00105937,-0.00470128,-0.00068184,-0.0002069
 4,0.00123288,-0.02425546,0.04093267,0.06087733,-0.00028066,0.00018345,
 -0.00012763,-0.00028906,0.00019377,0.00009269,-0.00004647,-0.00018632,
 -0.00001724,0.00189680,0.00085310,-0.00095516,0.00002395,0.00002271,-0
 .00000182,0.00001287,0.00000147,-0.00000068,0.00000152,-0.00002542,0.0
 0000981,-0.00000100,-0.00012299,0.00007945,0.00004428,0.00010698,-0.00
 000811,0.00008418,0.00007010,0.00002476,0.00006506,-0.00023009,-0.0000
 5616,-0.00002276,-0.00001569,0.00000115,0.00000881,-0.00002257,0.00001
 140,0.00002731,0.00001200,0.00000390,-0.00000770,0.00002066,-0.0000076
 2,-0.00002341,-0.00001090,0.00001618,0.00000380,0.00001917,-0.00000030
 ,0.00000629,-0.00002957,-0.00000904,-0.00003059,-0.00000198,-0.0001087
 5,0.00006521,0.00003552,-0.00002003,-0.00000781,0.00000223,0.00000993,
 0.01212470,-0.00512290,0.01790897,-0.14182084,0.03252170,-0.12381380,-
 0.00044916,0.00017805,0.00044576,-0.00000130,0.00000147,-0.00000219,0.
 00000179,-0.00000260,0.00000063,0.00000337,-0.00000149,0.00000013,0.00
 000017,-0.00000486,-0.00000208,0.00000447,-0.00000217,-0.00000095,-0.0
 0000064,0.00000360,-0.00000047,-0.00000357,-0.00000555,0.00000376,-0.0
 0006718,0.00002415,0.00009722,0.00000850,0.00005436,-0.00002725,0.0000
 2157,-0.00001977,-0.00000082,-0.00000600,-0.00000055,-0.00000006,0.000
 00431,0.00001381,0.00000974,-0.00000030,-0.00002268,-0.00000770,0.0008
 1701,-0.00009105,-0.00120306,-0.00185943,-0.00026409,0.00412014,-0.008
 92504,0.00157637,-0.01140904,0.15121828,-0.00025133,0.00010286,-0.0001
 4313,0.00031946,-0.00012995,-0.00012027,-0.00060448,0.00027464,0.00011
 466,0.00117954,0.00027836,0.00016296,-0.00001140,0.00003516,-0.0000011
 0,-0.00001469,-0.00002689,0.00000388,0.00006275,-0.00003603,0.00004549
 ,-0.00006500,-0.00014434,0.00005840,-0.00005068,-0.00000760,0.00000223
 ,0.00012507,0.00005215,0.00006373,0.00007896,-0.00049511,0.00011914,-0
 .00002155,-0.00000479,-0.00000421,-0.00000110,-0.00002601,0.00000913,0
 .00003207,0.00001078,0.00000374,-0.00002181,0.00002781,-0.00001862,0.0
 0000335,-0.00008797,0.00001532,-0.00006348,-0.00001509,-0.00003027,-0.
 00003950,0.00009430,-0.00001006,0.00001023,0.00002941,0.00011343,0.000
 25434,0.00003089,-0.00005967,-0.00005829,0.00000537,0.00001633,-0.0009
 5585,-0.00140299,0.00080284,0.03288200,-0.06181278,0.04308392,0.000307
 16,-0.00002490,-0.00005977,-0.00000272,0.00000121,0.00000112,-0.000000
 50,-0.00000125,0.00000074,0.00000101,0.00000019,0.00000096,0.00000287,
 -0.00000890,0.00000449,-0.00000407,0.00000019,0.00000568,-0.00000951,-
 0.00000521,-0.00000150,-0.00000012,0.00000861,-0.00000035,-0.00003574,
 0.00006576,-0.00018883,0.00001913,0.00002757,0.00004675,-0.00002297,-0
 .00000308,0.00000817,-0.00001123,0.00001295,0.00000860,0.00002233,0.00
 000320,-0.00001986,0.00000603,-0.00003663,-0.00000788,-0.00059396,0.00
 023305,-0.00032589,0.00002788,0.00099808,0.00011665,0.01685711,-0.0047
 5546,0.02399226,-0.03625398,0.06045024,0.00005606,-0.00021718,0.000186
 78,0.00015157,-0.00005872,0.00058866,-0.00041136,0.00110914,-0.0005566
 5,-0.00041328,-0.00069601,0.00193397,-0.00007200,0.00000925,-0.0000437
 3,-0.00004381,-0.00005007,0.00000662,0.00008932,-0.00000892,0.00004021
 ,-0.00009629,0.00001854,-0.00000646,0.00011883,-0.00006519,-0.00002681
 ,-0.00004850,-0.00003031,-0.00002843,0.00006450,0.00011621,0.00006623,
 0.00000702,0.00001623,-0.00001204,-0.00001150,-0.00000018,-0.00000036,
 0.00000274,-0.00000131,0.00000066,-0.00001951,0.00000700,-0.00000797,0
 .00007296,0.00005906,0.00000359,0.00004432,-0.00001009,0.00001277,0.00
 003434,-0.00005210,0.00006082,-0.00014845,-0.00002588,0.00004287,0.000
 18607,-0.00005304,-0.00004552,-0.00004374,0.00001384,-0.00001498,-0.01
 695964,0.00534169,-0.02371590,-0.12197294,0.04382283,-0.21427684,0.000
 35668,-0.00044192,-0.00051321,0.00000070,-0.00000172,0.00000014,-0.000
 00298,0.00000191,-0.00000088,-0.00000234,0.00000140,-0.00000137,0.0000
 0455,-0.00000603,0.00000354,-0.00000112,0.00000631,-0.00000734,0.00001
 495,0.00000491,-0.00000190,0.00000108,-0.00000232,-0.00000362,0.000154
 02,-0.00009633,-0.00003291,0.00001075,-0.00001575,0.00007827,-0.000037
 09,0.00001877,0.00001120,-0.00000968,0.00001251,0.00001070,0.00001509,
 -0.00001339,-0.00002778,0.00000640,-0.00001385,0.00000020,-0.00027458,
 -0.00014229,0.00113052,0.00409353,-0.00004019,-0.00341257,0.00365758,-
 0.00062108,0.00556416,0.13211599,-0.04770732,0.23402479,0.00051426,-0.
 00022793,0.00022075,-0.00039815,0.00050738,-0.00016563,0.00129307,-0.0
 0065823,0.00071855,-0.00228157,-0.00068608,0.00337019,-0.00004730,-0.0
 0007886,0.00001404,-0.00002034,0.00003805,-0.00001898,-0.00004457,0.00
 003865,-0.00003481,0.00000432,0.00027506,-0.00011972,0.00003714,-0.000
 24609,-0.00006909,-0.00026204,-0.00017373,-0.00009401,-0.00062061,0.00
 082281,-0.00001964,0.00004964,0.00001216,0.00000883,-0.00000854,0.0000
 5399,-0.00002343,-0.00006113,-0.00002731,-0.00000455,0.00002861,-0.000
 04282,0.00002709,0.00001911,0.00000053,-0.00002817,-0.00002759,-0.0000
 3058,0.00001056,0.00006559,0.00003040,-0.00003153,0.00009866,-0.000103
 67,0.00001340,-0.00017572,-0.00011704,0.00002910,0.00003340,0.00000070
 ,-0.00002713,-0.01175541,-0.01174901,-0.00336420,-0.17803689,-0.133757
 31,-0.01555551,-0.00012315,-0.00014668,-0.00004051,0.00000249,-0.00000
 270,0.00000104,-0.00000151,0.00000299,-0.00000152,-0.00000393,0.000001
 19,-0.00000163,-0.00000003,0.00000817,-0.00000338,0.00000338,-0.000008
 14,-0.00000444,0.00000394,0.00000123,0.00000899,0.00000460,-0.00000649
 ,0.00000137,0.00003904,0.00002604,0.00005926,-0.00000462,-0.00005636,-
 0.00002469,0.00000594,0.00002209,0.00000120,0.00001938,-0.00000325,0.0
 0000610,-0.00003327,-0.00002180,0.00001968,-0.00000910,0.00005425,-0.0
 0000036,0.00012196,0.00043568,-0.00043968,0.00066458,-0.00001914,-0.00
 004392,0.01298529,0.01158347,0.00093566,-0.01260133,-0.01309730,-0.000
 69023,0.19052239,0.00018646,-0.00004958,0.00006539,-0.00016717,0.00015
 269,-0.00017562,0.00049263,-0.00021241,0.00036326,-0.00015772,0.001189
 55,0.00003346,-0.00002774,-0.00003526,0.00000928,-0.00001392,0.0000153
 0,-0.00001122,0.00000032,0.00000004,-0.00000031,-0.00002431,0.00007639
 ,-0.00004052,0.00003484,0.00001358,0.00000740,0.00001361,0.00006101,-0
 .00005082,0.00021388,0.00039694,-0.00023272,0.00002150,0.00000374,0.00
 000368,-0.00000420,0.00002240,-0.00000984,-0.00002258,-0.00001452,-0.0
 0000019,0.00000878,-0.00001250,0.00000794,0.00000552,0.00001379,0.0000
 1526,0.00000049,-0.00000399,-0.00001273,-0.00001339,0.00004610,0.00001
 206,-0.00000802,-0.00001740,0.00003010,-0.00001349,-0.00002181,0.00000
 877,0.00000576,0.00000460,-0.00000234,0.00078034,-0.00111456,-0.000166
 35,-0.13447597,-0.18858378,-0.01631696,0.00001267,0.00004132,0.0000318
 1,0.00000071,-0.00000154,0.00000046,-0.00000155,0.00000094,-0.00000043
 ,-0.00000155,0.00000110,-0.00000073,0.00000228,-0.00000050,0.00000152,
 -0.00000358,0.00000518,0.00000548,-0.00000095,-0.00000329,-0.00000121,
 -0.00000125,-0.00001444,0.00000323,-0.00010726,-0.00008420,-0.00003310
 ,0.00001175,0.00000830,0.00001035,-0.00000208,0.00000386,-0.00000144,-
 0.00000704,-0.00000199,-0.00000255,0.00000466,-0.00000085,-0.00000617,
 0.00000614,-0.00000608,0.00000324,-0.00011328,0.00031235,0.00037261,0.
 00000537,0.00008758,0.00029314,-0.02052888,-0.01889838,-0.00211328,0.0
 0654256,0.00628219,-0.00018843,0.14734566,0.20033811,-0.00043897,0.000
 06721,-0.00013057,0.00045059,-0.00047668,0.00043524,-0.00112078,0.0012
 1358,-0.00141312,0.00578099,0.00151729,-0.00456601,0.00005023,0.000086
 14,-0.00003888,0.00003412,-0.00004984,0.00003416,0.00003324,-0.0000130
 1,0.00001329,0.00004406,-0.00018765,0.00010044,0.00015558,0.00042855,0
 .00020070,0.00027269,0.00022459,0.00011491,0.00073869,-0.00084576,0.00
 015561,-0.00004707,0.00000196,-0.00000967,0.00000749,-0.00005039,0.000
 02114,0.00005209,0.00002878,0.00000173,-0.00002690,0.00002960,-0.00002
 133,0.00001597,0.00000862,0.00004163,0.00001902,0.00002595,-0.00000700
 ,-0.00008530,-0.00003524,0.00001513,-0.00007687,0.00010032,-0.00002775
 ,0.00007825,0.00005541,-0.00002368,-0.00002652,-0.00001541,0.00001647,
 0.01810602,0.02079337,0.00386047,-0.01678553,-0.01758000,-0.05178896,0
 .00000022,-0.00017333,-0.00008948,-0.00000015,0.00000213,-0.00000115,0
 .00000166,-0.00000179,0.00000028,0.00000215,-0.00000106,0.00000131,-0.
 00000223,-0.00000230,0.00000058,-0.00000302,0.00001015,-0.00001038,-0.
 00000610,-0.00000110,-0.00000803,-0.00000233,0.00001569,-0.00000632,-0
 .00002345,0.00002224,-0.00006346,-0.00001525,-0.00003131,0.00000547,-0
 .00001208,-0.00000956,0.00000019,0.00000219,0.00000745,0.00000159,0.00
 001026,0.00001028,-0.00000261,-0.00000283,-0.00000420,0.00000185,-0.00
 031105,-0.00044680,0.00121416,-0.00094985,0.00030410,0.00090441,-0.004
 10851,-0.00301459,-0.00128059,-0.01717167,-0.02010189,-0.00102940,0.01
 536095,0.01808852,0.05337763||-0.00000008,0.00000263,0.00000264,0.0000
 0112,-0.00000114,-0.00000271,0.00000220,0.00000031,0.00000242,-0.00000
 612,0.00001091,-0.00000361,-0.00000359,0.00000069,-0.00000201,0.000003
 09,-0.00000269,0.00000272,-0.00000233,0.00000194,-0.00000090,0.0000041
 0,-0.00000465,-0.00000232,0.00000036,-0.00000146,0.00000033,-0.0000022
 9,0.00000168,-0.00000071,0.00000439,-0.00000837,0.00000403,-0.00000129
 ,-0.00000077,-0.00000081,-0.00000092,-0.00000094,-0.00000020,0.0000020
 8,0.00000026,0.00000007,-0.00000066,-0.00000054,-0.00000231,0.00000156
 ,-0.00000177,0.00000119,-0.00000265,-0.00000017,0.00000021,0.00000050,
 0.00000040,0.00000091,-0.00000088,0.00000181,-0.00000051,-0.00000094,0
 .00000148,0.00000172,-0.00000067,0.00000016,-0.00000094,0.00000032,-0.
 00000127,0.00000077,0.00000097,-0.00000086,0.00000090,-0.00000011,-0.0
 0000039,-0.00000099,0.00000064,0.00000024,-0.00000035,0.00000026,0.,-0
 .00000095,0.00000003,-0.00000021,-0.00000116,-0.00000024,0.00000008,-0
 .00000018,-0.00000058,0.00000081,0.00000045,0.00000047,0.00000021,0.00
 000065,-0.00000017,0.00000022,0.00000075,0.00000006,0.00000014,0.00000
 061,-0.00000008,0.00000101,-0.00000028,0.00000108,-0.00000032,-0.00000
 022,0.00000017,-0.00000014,-0.00000051,0.00000054,-0.00000013,-0.00000
 035,0.00000016,0.00000006,0.00000019,0.00000083,-0.00000007,-0.0000000
 3,-0.00000019,-0.00000026,0.00000104,-0.00000048,0.00000111,0.00000028
 ,-0.00000025,-0.00000019,0.,-0.00000040,0.00000020,0.00000014|||@


 "PERFECTION IS NOT AN ACCIDENT"
         --  EAGLE ELECTRIC MANUFACTURING CO.,INC. NY
 Job cpu time:  0 days  0 hours 29 minutes 19.0 seconds.
 File lengths (MBytes):  RWF=    787 Int=      0 D2E=      0 Chk=     12 Scr=      1
 Normal termination of Gaussian 09 at Wed Oct 25 00:19:45 2023.
