 Entering Gaussian System, Link 0=g16
 Input=Linux-A2.gjf
 Output=Linux-A2.log
 Initial command:
 /nfs-share/home/2100011873/Gaussian16_AVX2/g16/l1.exe "/nfs-share/home/2100011873/GaussTmp/Gau-101871.inp" -scrdir="/nfs-share/home/2100011873/GaussTmp/"
 Entering Link 1 = /nfs-share/home/2100011873/Gaussian16_AVX2/g16/l1.exe PID=    101872.
  
 Copyright (c) 1988-2021, Gaussian, Inc.  All Rights Reserved.
  
 This is part of the Gaussian(R) 16 program.  It is based on
 the Gaussian(R) 09 system (copyright 2009, Gaussian, Inc.),
 the Gaussian(R) 03 system (copyright 2003, Gaussian, Inc.),
 the Gaussian(R) 98 system (copyright 1998, Gaussian, Inc.),
 the Gaussian(R) 94 system (copyright 1995, Gaussian, Inc.),
 the Gaussian 92(TM) system (copyright 1992, Gaussian, Inc.),
 the Gaussian 90(TM) system (copyright 1990, Gaussian, Inc.),
 the Gaussian 88(TM) system (copyright 1988, Gaussian, Inc.),
 the Gaussian 86(TM) system (copyright 1986, Carnegie Mellon
 University), and the Gaussian 82(TM) system (copyright 1983,
 Carnegie Mellon University). Gaussian is a federally registered
 trademark of Gaussian, Inc.
  
 This software contains proprietary and confidential information,
 including trade secrets, belonging to Gaussian, Inc.
  
 This software is provided under written license and may be
 used, copied, transmitted, or stored only in accord with that
 written license.
  
 The following legend is applicable only to US Government
 contracts under FAR:
  
                    RESTRICTED RIGHTS LEGEND
  
 Use, reproduction and disclosure by the US Government is
 subject to restrictions as set forth in subparagraphs (a)
 and (c) of the Commercial Computer Software - Restricted
 Rights clause in FAR 52.227-19.
  
 Gaussian, Inc.
 340 Quinnipiac St., Bldg. 40, Wallingford CT 06492
  
  
 ---------------------------------------------------------------
 Warning -- This program may not be used in any manner that
 competes with the business of Gaussian, Inc. or will provide
 assistance to any competitor of Gaussian, Inc.  The licensee
 of this program is prohibited from giving any competitor of
 Gaussian, Inc. access to this program.  By using this program,
 the user acknowledges that Gaussian, Inc. is engaged in the
 business of creating and licensing software in the field of
 computational chemistry and represents and warrants to the
 licensee that it is not a competitor of Gaussian, Inc. and that
 it will not use this program in any manner prohibited above.
 ---------------------------------------------------------------
  

 Cite this work as:
 Gaussian 16, Revision C.02,
 M. J. Frisch, G. W. Trucks, H. B. Schlegel, G. E. Scuseria, 
 M. A. Robb, J. R. Cheeseman, G. Scalmani, V. Barone, 
 G. A. Petersson, H. Nakatsuji, X. Li, M. Caricato, A. V. Marenich, 
 J. Bloino, B. G. Janesko, R. Gomperts, B. Mennucci, H. P. Hratchian, 
 J. V. Ortiz, A. F. Izmaylov, J. L. Sonnenberg, D. Williams-Young, 
 F. Ding, F. Lipparini, F. Egidi, J. Goings, B. Peng, A. Petrone, 
 T. Henderson, D. Ranasinghe, V. G. Zakrzewski, J. Gao, N. Rega, 
 G. Zheng, W. Liang, M. Hada, M. Ehara, K. Toyota, R. Fukuda, 
 J. Hasegawa, M. Ishida, T. Nakajima, Y. Honda, O. Kitao, H. Nakai, 
 T. Vreven, K. Throssell, J. A. Montgomery, Jr., J. E. Peralta, 
 F. Ogliaro, M. J. Bearpark, J. J. Heyd, E. N. Brothers, K. N. Kudin, 
 V. N. Staroverov, T. A. Keith, R. Kobayashi, J. Normand, 
 K. Raghavachari, A. P. Rendell, J. C. Burant, S. S. Iyengar, 
 J. Tomasi, M. Cossi, J. M. Millam, M. Klene, C. Adamo, R. Cammi, 
 J. W. Ochterski, R. L. Martin, K. Morokuma, O. Farkas, 
 J. B. Foresman, and D. J. Fox, Gaussian, Inc., Wallingford CT, 2019.
 
 ******************************************
 Gaussian 16:  ES64L-G16RevC.02  7-Dec-2021
                 2-Nov-2023 
 ******************************************
 %nprocshared=32
 Will use up to   32 processors via shared memory.
 %mem=128GB
 -----------------------------------------------------------------
 # td=(nstates=150) b3lyp/6-311+g(2d,p) scrf(smd, solvent=ethanol)
 -----------------------------------------------------------------
 1/38=1,172=1/1;
 2/12=2,17=6,18=5,40=1/2;
 3/5=4,6=6,7=112,11=9,25=1,30=1,70=32201,72=4,74=-5/1,2,3,8;
 4//1;
 5/5=2,38=5,53=4/2;
 8/6=1,10=2,108=150/1;
 9/41=150,42=1,70=2/14;
 6/7=2,8=2,9=2,10=2/1;
 99/5=1,9=1/99;
 ---
 A-2
 ---
 Symbolic Z-matrix:
 Charge =  1 Multiplicity = 1
 C                     1.18593   1.12419   0.25907 
 C                    -0.06404   0.51889   0.18474 
 C                    -1.25506   1.23243   0.20607 
 C                    -2.57691   0.77597   0.13437 
 C                     2.39263   0.43147   0.17128 
 S                    -3.82767   1.97001  -0.18708 
 C                    -5.07788   0.74479  -0.13478 
 C                    -4.5092   -0.50864   0.11385 
 N                    -3.11837  -0.45818   0.27972 
 S                     2.5052   -1.30012  -0.12511 
 C                     4.26032  -1.22576  -0.10255 
 C                     4.68878   0.08701   0.11942 
 N                     3.62751   0.98166   0.28741 
 C                     5.15932  -2.26746  -0.2795 
 C                     6.51791  -1.9736   -0.23726 
 C                     6.95394  -0.66384  -0.02533 
 C                     6.05157   0.37821   0.15346 
 C                    -6.4468    0.90418  -0.30422 
 C                    -7.25123  -0.22611  -0.22641 
 C                    -6.68975  -1.48249   0.01487 
 C                    -5.32005  -1.6405    0.18625 
 C                     3.84714   2.41567   0.55458 
 C                     3.91176   3.24964  -0.71763 
 C                    -2.36937  -1.66031   0.69242 
 C                    -1.91885  -2.52299  -0.47911 
 H                     1.22885   2.1992    0.37656 
 H                    -0.09664  -0.55695   0.07224 
 H                    -1.16519   2.31437   0.2242 
 H                     4.81396  -3.27995  -0.44835 
 H                     7.24042  -2.76872  -0.37396 
 H                     8.01554  -0.44971  -0.00207 
 H                     6.40682   1.38809   0.30607 
 H                    -6.87574   1.88074  -0.49123 
 H                    -8.32188  -0.12916  -0.35743 
 H                    -7.33033  -2.35428   0.06736 
 H                    -4.90197  -2.62169   0.36374 
 H                     3.04859   2.7543    1.21217 
 H                     4.77271   2.49485   1.12204 
 H                     4.08254   4.2955   -0.45252 
 H                     4.72891   2.92447  -1.36454 
 H                     2.9782    3.18722  -1.27998 
 H                    -1.53167  -1.32932   1.3026 
 H                    -3.02767  -2.2247    1.35177 
 H                    -1.2761   -1.97256  -1.16835 
 H                    -1.35915  -3.37917  -0.09602 
 H                    -2.77567  -2.8996   -1.0408 
 
                          Input orientation:                          
 ---------------------------------------------------------------------
 Center     Atomic      Atomic             Coordinates (Angstroms)
 Number     Number       Type             X           Y           Z
 ---------------------------------------------------------------------
      1          6           0        1.185932    1.124188    0.259065
      2          6           0       -0.064042    0.518894    0.184736
      3          6           0       -1.255062    1.232433    0.206071
      4          6           0       -2.576908    0.775971    0.134368
      5          6           0        2.392634    0.431471    0.171283
      6         16           0       -3.827667    1.970009   -0.187075
      7          6           0       -5.077877    0.744792   -0.134775
      8          6           0       -4.509195   -0.508640    0.113846
      9          7           0       -3.118372   -0.458179    0.279721
     10         16           0        2.505198   -1.300121   -0.125106
     11          6           0        4.260315   -1.225762   -0.102553
     12          6           0        4.688784    0.087010    0.119416
     13          7           0        3.627512    0.981655    0.287411
     14          6           0        5.159317   -2.267461   -0.279503
     15          6           0        6.517913   -1.973596   -0.237257
     16          6           0        6.953940   -0.663841   -0.025333
     17          6           0        6.051566    0.378213    0.153458
     18          6           0       -6.446804    0.904176   -0.304215
     19          6           0       -7.251229   -0.226106   -0.226408
     20          6           0       -6.689747   -1.482485    0.014868
     21          6           0       -5.320051   -1.640504    0.186250
     22          6           0        3.847144    2.415669    0.554580
     23          6           0        3.911762    3.249637   -0.717632
     24          6           0       -2.369369   -1.660308    0.692423
     25          6           0       -1.918854   -2.522991   -0.479110
     26          1           0        1.228852    2.199196    0.376562
     27          1           0       -0.096636   -0.556945    0.072235
     28          1           0       -1.165193    2.314370    0.224199
     29          1           0        4.813961   -3.279951   -0.448352
     30          1           0        7.240415   -2.768718   -0.373960
     31          1           0        8.015538   -0.449707   -0.002068
     32          1           0        6.406822    1.388085    0.306065
     33          1           0       -6.875736    1.880738   -0.491225
     34          1           0       -8.321880   -0.129159   -0.357431
     35          1           0       -7.330326   -2.354283    0.067360
     36          1           0       -4.901973   -2.621689    0.363736
     37          1           0        3.048585    2.754296    1.212168
     38          1           0        4.772710    2.494849    1.122044
     39          1           0        4.082538    4.295496   -0.452515
     40          1           0        4.728911    2.924468   -1.364544
     41          1           0        2.978199    3.187215   -1.279982
     42          1           0       -1.531667   -1.329317    1.302601
     43          1           0       -3.027666   -2.224702    1.351768
     44          1           0       -1.276100   -1.972556   -1.168349
     45          1           0       -1.359149   -3.379171   -0.096017
     46          1           0       -2.775672   -2.899604   -1.040801
 ---------------------------------------------------------------------
                    Distance matrix (angstroms):
                    1          2          3          4          5
     1  C    0.000000
     2  C    1.390806   0.000000
     3  C    2.443967   1.388568   0.000000
     4  C    3.780975   2.526484   1.400277   0.000000
     5  C    1.394164   2.458268   3.734761   4.981605   0.000000
     6  S    5.103982   4.050784   2.704973   1.758821   6.417762
     7  C    6.287635   5.029081   3.868835   2.515603   7.483340
     8  C    5.926355   4.562920   3.691778   2.320427   6.965799
     9  N    4.585994   3.208212   2.517045   1.355521   5.583406
    10  S    2.786633   3.163196   4.545664   5.495934   1.760377
    11  C    3.886498   4.671876   6.046268   7.128161   2.511900
    12  C    3.655846   4.772855   6.053826   7.298299   2.322423
    13  N    2.445901   3.721863   4.889687   6.209715   1.356876
    14  C    5.251774   5.938246   7.323203   8.323638   3.891269
    15  C    6.186487   7.050725   8.419875   9.508627   4.792617
    16  C    6.045481   7.120047   8.428352   9.640313   4.695091
    17  C    4.923619   6.117306   7.356580   8.637658   3.659363
    18  C    7.656654   6.413047   5.227077   3.896779   8.864830
    19  C    8.558310   7.237384   6.186145   4.794121   9.674433
    20  C    8.299440   6.923463   6.078087   4.693650   9.283175
    21  C    7.069416   5.682309   4.977780   3.656074   7.986164
    22  C    2.972760   4.362558   5.249192   6.643315   2.489891
    23  C    3.591882   4.906959   5.623025   6.996268   3.322646
    24  C    4.536671   3.212662   3.137861   2.507978   5.227217
    25  C    4.846289   3.624098   3.874700   3.419436   5.266952
    26  H    1.082261   2.128799   2.670866   4.070385   2.126354
    27  H    2.122756   1.082196   2.135822   2.816429   2.680157
    28  H    2.635439   2.106615   1.085814   2.089900   4.025698
    29  H    5.749737   6.215057   7.590976   8.450740   4.474531
    30  H    7.225801   8.029672   9.408442  10.450026   5.834336
    31  H    7.013477   8.139576   9.424274  10.663996   5.694170
    32  H    5.227767   6.530107   7.664117   9.006196   4.128799
    33  H    8.131777   6.979306   5.700745   4.482388   9.404359
    34  H    9.609861   8.300952   7.218822   5.836594  10.742190
    35  H    9.201259   7.814589   7.056388   5.691921  10.114701
    36  H    7.148786   5.770691   5.308397   4.123425   7.910127
    37  H    2.652383   3.967504   4.674364   6.059834   2.628541
    38  H    3.935533   5.308212   6.226294   7.612288   3.290325
    39  H    4.353604   5.644726   6.189189   7.555111   4.263284
    40  H    4.292996   5.582065   6.413871   7.761299   3.745930
    41  H    3.136394   4.303553   4.893876   6.218818   3.169098
    42  H    3.807098   2.611404   2.800259   2.624792   4.447515
    43  H    5.492128   4.203849   4.050497   3.269447   6.150484
    44  H    4.205822   3.083382   3.487324   3.308107   4.586237
    45  H    5.184955   4.117163   4.622660   4.336037   5.354280
    46  H    5.794382   4.532219   4.576098   3.863985   6.267104
                    6          7          8          9         10
     6  S    0.000000
     7  C    1.751262   0.000000
     8  C    2.588191   1.398679   0.000000
     9  N    2.572371   2.336366   1.401588   0.000000
    10  S    7.127606   7.853966   7.062949   5.700640   0.000000
    11  C    8.696870   9.543896   8.801443   7.428347   1.756836
    12  C    8.727517   9.792086   9.217247   7.827810   2.598456
    13  N    7.535362   8.718838   8.273881   6.897835   2.576094
    14  C    9.936326  10.672149   9.835055   8.491547   2.829122
    15  C   11.071837  11.910604  11.129532   9.768405   4.070384
    16  C   11.099837  12.114489  11.465030  10.079029   4.495121
    17  C   10.012443  11.139208  10.598007   9.208868   3.933336
    18  C    2.830124   1.388551   2.434164   3.643549   9.221136
    19  C    4.067585   2.382121   2.777472   4.170196   9.815887
    20  C    4.489098   2.753413   2.390184   3.724791   9.197818
    21  C    3.924587   2.418955   1.394219   2.500804   7.838834
    22  C    7.723431   9.106209   8.864211   7.540090   4.008726
    23  C    7.862423   9.350272   9.258970   8.010331   4.798938
    24  C    4.009907   3.715478   2.497988   1.475277   4.955753
    25  C    4.890389   4.558113   3.334527   2.505617   4.603582
    26  H    5.092995   6.492425   6.350321   5.096016   3.758450
    27  H    4.513683   5.152682   4.413020   3.030461   2.713078
    28  H    2.715971   4.231020   4.377661   3.391905   5.163170
    29  H   10.114746  10.683883   9.742560   8.450704   3.058529
    30  H   12.041300  12.811802  11.974942  10.633455   4.963969
    31  H   12.089283  13.148458  12.525408  11.137479   5.576934
    32  H   10.262874  11.511146  11.081243   9.702510   4.757629
    33  H    3.064507   2.156323   3.416980   4.492513   9.912307
    34  H    4.963212   3.367035   3.860398   5.252686  10.892692
    35  H    5.570714   3.836489   3.371548   4.623945   9.893727
    36  H    4.747759   3.407734   2.163723   2.805186   7.540006
    37  H    7.060866   8.478900   8.305005   7.015755   4.303704
    38  H    8.715259  10.083470   9.807710   8.467530   4.593342
    39  H    8.249224   9.829632   9.859937   8.659486   5.822897
    40  H    8.689790  10.121087   9.965665   8.702055   4.932368
    41  H    6.999703   8.495722   8.465410   7.272534   4.657645
    42  H    4.286759   4.352423   3.309429   2.079134   4.281995
    43  H    4.539123   3.902700   2.583069   2.068361   5.800741
    44  H    4.797626   4.785997   3.773589   2.790020   3.979791
    45  H    5.891995   5.553153   4.266940   3.430487   4.388220
    46  H    5.054569   4.404844   3.170965   2.796744   5.593249
                   11         12         13         14         15
    11  C    0.000000
    12  C    1.398652   0.000000
    13  N    2.329206   1.398181   0.000000
    14  C    1.387319   2.433942   3.636561   0.000000
    15  C    2.382047   2.778313   4.166918   1.390656   0.000000
    16  C    2.752696   2.390745   3.724324   2.420097   1.396599
    17  C    2.418028   1.393963   2.501624   2.825448   2.429227
    18  C   10.918777  11.173564  10.091970  12.031705  13.280435
    19  C   11.555531  11.949123  10.957632  12.577424  13.879593
    20  C   10.953700  11.486741  10.610942  11.878685  13.219192
    21  C    9.593687  10.157044   9.324421  10.508433  11.850219
    22  C    3.723245   2.514036   1.475132   4.934491   5.198621
    23  C    4.530895   3.362532   2.496928   5.673334   5.857042
    24  C    6.691302   7.293763   6.565561   7.615405   8.941266
    25  C    6.325087   7.129602   6.605473   7.085594   8.458095
    26  H    4.598876   4.061845   2.691454   5.985817   6.764845
    27  H    4.411450   4.828783   4.035204   5.538468   6.771628
    28  H    6.486558   6.264276   4.974952   7.826003   8.810772
    29  H    2.155410   3.416790   4.484450   1.083013   2.157447
    30  H    3.366804   3.861272   5.249360   2.142697   1.083012
    31  H    3.835891   3.371960   4.624648   3.396940   2.149519
    32  H    3.406854   2.163166   2.808932   3.906683   3.407116
    33  H   11.567759  11.718723  10.570376  12.731649  13.939520
    34  H   12.632463  13.021194  12.018224  13.649948  14.954459
    35  H   11.646690  12.264649  11.456488  12.494760  13.856819
    36  H    9.279739   9.968920   9.259699  10.088052  11.454039
    37  H    4.363215   3.316440   2.081487   5.647859   6.040698
    38  H    3.950333   2.609597   2.073125   4.979297   4.986024
    39  H    5.535194   4.290221   3.425796   6.652954   6.728960
    40  H    4.363097   3.202330   2.777869   5.321531   5.335010
    41  H    4.743894   3.807320   2.782593   5.959171   6.344353
    42  H    5.960892   6.488445   5.743547   6.939195   8.220827
    43  H    7.498506   8.149006   7.463577   8.348028   9.680193
    44  H    5.687312   6.440496   5.906946   6.503200   7.849431
    45  H    6.017939   6.974118   6.635556   6.615132   8.002731
    46  H    7.292953   8.123058   7.604544   7.996451   9.374108
                   16         17         18         19         20
    16  C    0.000000
    17  C    1.390008   0.000000
    18  C   13.495051  12.517801   0.000000
    19  C   14.213334  13.321931   1.389493   0.000000
    20  C   13.668284  12.877207   2.420121   1.397127   0.000000
    21  C   12.314605  11.549457   2.825867   2.429044   1.389392
    22  C    4.412693   3.028465  10.439708  11.435156  11.247798
    23  C    5.004941   3.685463  10.628828  11.701900  11.632778
    24  C    9.403840   8.680910   4.918876   5.170468   4.376799
    25  C    9.076829   8.505570   5.681408   5.811520   4.907962
    26  H    6.413668   5.159876   7.813849   8.840669   8.740126
    27  H    7.052061   6.219446   6.526961   7.168462   6.658005
    28  H    8.651724   7.472303   5.492111   6.610363   6.706760
    29  H    3.406242   3.908453  12.013847  12.447652  11.652500
    30  H    2.152700   3.405100  14.171626  14.713748  13.994820
    31  H    1.083229   2.137013  14.528717  15.270052  14.741517
    32  H    2.149317   1.081359  12.877201  13.763412  13.410633
    33  H   14.069537  13.030285   1.082880   2.156366   3.406170
    34  H   15.288782  14.391469   2.141617   1.082986   2.152663
    35  H   14.384243  13.658293   3.396503   2.149812   1.083111
    36  H   12.022779  11.358858   3.906966   3.406771   2.148402
    37  H    5.335435   3.972975   9.792077  10.818432  10.687327
    38  H    4.006440   2.655895  11.421119  12.401493  12.183306
    39  H    5.746517   4.425989  11.063005  12.204519  12.232973
    40  H    4.429470   3.246099  11.406248  12.439663  12.317052
    41  H    5.675499   4.403502   9.746541  10.835219  10.814431
    42  H    8.614627   7.857583   5.632843   6.022320   5.318600
    43  H   10.196330   9.520692   4.921652   4.931887   3.968504
    44  H    8.411467   7.808199   5.979841   6.295991   5.563070
    45  H    8.745597   8.312573   6.653919   6.683968   5.659062
    46  H   10.034698   9.491600   5.337463   5.276499   4.294490
                   21         22         23         24         25
    21  C    0.000000
    22  C   10.031235   0.000000
    23  C   10.486031   1.522564   0.000000
    24  C    2.993848   7.434892   8.096198   0.000000
    25  C    3.576259   7.661959   8.208301   1.523048   0.000000
    26  H    7.593922   2.633250   3.081995   5.286089   5.739275
    27  H    5.335838   4.962106   5.584014   2.601415   2.736749
    28  H    5.736315   5.024235   5.247594   4.179395   4.945979
    29  H   10.285364   5.863505   6.597120   7.451499   6.775303
    30  H   12.623471   6.265329   6.886119   9.732096   9.163168
    31  H   13.389974   5.088786   5.571190  10.478271  10.159637
    32  H   12.112236   2.769411   3.276989   9.298575   9.232004
    33  H    3.908743  10.787030  10.876362   5.852126   6.630509
    34  H    3.404516  12.465675  12.696771   6.235303   6.836957
    35  H    2.136544  12.162469  12.585892   5.048108   5.441610
    36  H    1.081210  10.097447  10.645363   2.728804   3.101472
    37  H    9.507936   1.088479   2.171305   7.008073   7.442152
    38  H   10.947177   1.088557   2.166874   8.274007   8.515835
    39  H   11.137899   2.145554   1.092370   8.854919   9.083456
    40  H   11.145652   2.172424   1.091770   8.696946   8.640115
    41  H    9.711728   2.171628   1.091638   7.482335   7.564984
    42  H    3.961683   6.596671   7.394530   1.087942   2.179281
    43  H    2.637186   8.332560   9.077801   1.089326   2.161147
    44  H    4.277702   6.962229   7.374846   2.180644   1.091404
    45  H    4.334903   7.817220   8.491761   2.143985   1.092279
    46  H    3.092709   8.640547   9.090620   2.169102   1.091545
                   26         27         28         29         30
    26  H    0.000000
    27  H    3.073410   0.000000
    28  H    2.401652   3.067468   0.000000
    29  H    6.599586   5.639125   8.215780   0.000000
    30  H    7.834688   7.676154   9.841231   2.480841   0.000000
    31  H    7.295146   8.113223   9.590471   4.296457   2.473243
    32  H    5.241588   6.792112   7.628900   4.989680   4.293754
    33  H    8.157133   7.226063   5.771496  12.778246  14.862601
    34  H    9.857812   8.247560   7.584675  13.508741  15.784567
    35  H    9.699964   7.453638   7.734972  12.190428  14.583313
    36  H    7.799238   5.238263   6.192550   9.772009  12.165665
    37  H    2.077932   4.707035   4.350350   6.502770   7.112730
    38  H    3.633467   5.841753   6.008110   5.984660   6.002727
    39  H    3.636670   6.425499   5.649910   7.610676   7.738312
    40  H    3.975913   6.121313   6.134883   6.272277   6.300895
    41  H    2.603946   5.030093   4.493564   6.773911   7.379736
    42  H    4.574759   2.041978   3.817553   6.865698   9.046113
    43  H    6.216096   3.606876   5.034222   8.114499  10.426293
    44  H    5.105394   2.221292   4.508794   6.270289   8.590457
    45  H    6.167597   3.096322   5.705836   6.183953   8.625683
    46  H    6.636482   3.728825   5.601731   7.622217  10.039114
                   31         32         33         34         35
    31  H    0.000000
    32  H    2.461786   0.000000
    33  H   15.080461  13.315582   0.000000
    34  H   16.344426  14.821502   2.479701   0.000000
    35  H   15.463757  14.239787   4.295820   2.472813   0.000000
    36  H   13.103946  11.998769   4.989844   4.292849   2.460944
    37  H    6.034122   3.737019  10.107265  11.834924  11.624541
    38  H    4.522164   2.135666  11.775656  13.436612  13.080899
    39  H    6.179672   3.798786  11.221244  13.170277  13.219050
    40  H    4.903398   2.822551  11.684173  13.441059  13.241630
    41  H    6.343110   4.184241   9.971412  11.812757  11.780884
    42  H    9.676001   8.449672   6.487013   7.092466   6.016712
    43  H   11.266580  10.156539   5.921056   5.944860   4.492146
    44  H    9.487561   8.514405   6.830981   7.327941   6.190827
    45  H    9.822186   9.121332   7.632533   7.688338   6.060697
    46  H   11.114458  10.223332   6.321727   6.237210   4.719139
                   36         37         38         39         40
    36  H    0.000000
    37  H    9.634958   0.000000
    38  H   10.970574   1.745864   0.000000
    39  H   11.368164   2.493096   2.489559   0.000000
    40  H   11.247255   3.080893   2.523809   1.768986   0.000000
    41  H    9.926847   2.530451   3.077234   1.769902   1.772337
    42  H    3.729699   6.137001   7.375772   8.138689   8.025160
    43  H    2.155651   7.856891   9.119912   9.814450   9.698288
    44  H    3.989438   6.834683   7.860770   8.277433   7.751096
    45  H    3.651952   7.665434   8.578314   9.414859   8.854914
    46  H    2.563419   8.424038   9.526599   9.957439   9.504914
                   41         42         43         44         45
    41  H    0.000000
    42  H    6.885324   0.000000
    43  H    8.502080   1.744175   0.000000
    44  H    6.688405   2.566060   3.079375   0.000000
    45  H    7.958127   2.487528   2.492555   1.770694   0.000000
    46  H    8.379356   3.082999   2.498676   1.767598   1.768937
                   46
    46  H    0.000000
 Stoichiometry    C21H21N2S2(1+)
 Framework group  C1[X(C21H21N2S2)]
 Deg. of freedom   132
 Full point group                 C1      NOp   1
 Largest Abelian subgroup         C1      NOp   1
 Largest concise Abelian subgroup C1      NOp   1
                         Standard orientation:                         
 ---------------------------------------------------------------------
 Center     Atomic      Atomic             Coordinates (Angstroms)
 Number     Number       Type             X           Y           Z
 ---------------------------------------------------------------------
      1          6           0        1.185932    1.124188    0.259065
      2          6           0       -0.064042    0.518894    0.184736
      3          6           0       -1.255062    1.232433    0.206071
      4          6           0       -2.576908    0.775971    0.134368
      5          6           0        2.392634    0.431471    0.171283
      6         16           0       -3.827667    1.970009   -0.187075
      7          6           0       -5.077877    0.744792   -0.134775
      8          6           0       -4.509195   -0.508640    0.113846
      9          7           0       -3.118372   -0.458179    0.279721
     10         16           0        2.505198   -1.300121   -0.125106
     11          6           0        4.260315   -1.225762   -0.102553
     12          6           0        4.688784    0.087010    0.119416
     13          7           0        3.627512    0.981655    0.287411
     14          6           0        5.159317   -2.267461   -0.279503
     15          6           0        6.517913   -1.973596   -0.237257
     16          6           0        6.953940   -0.663841   -0.025333
     17          6           0        6.051566    0.378213    0.153458
     18          6           0       -6.446804    0.904176   -0.304215
     19          6           0       -7.251229   -0.226106   -0.226408
     20          6           0       -6.689747   -1.482485    0.014868
     21          6           0       -5.320051   -1.640504    0.186250
     22          6           0        3.847144    2.415669    0.554580
     23          6           0        3.911762    3.249637   -0.717632
     24          6           0       -2.369369   -1.660308    0.692423
     25          6           0       -1.918854   -2.522991   -0.479110
     26          1           0        1.228852    2.199196    0.376562
     27          1           0       -0.096636   -0.556945    0.072235
     28          1           0       -1.165193    2.314370    0.224199
     29          1           0        4.813961   -3.279951   -0.448352
     30          1           0        7.240415   -2.768718   -0.373960
     31          1           0        8.015538   -0.449707   -0.002068
     32          1           0        6.406822    1.388085    0.306065
     33          1           0       -6.875736    1.880738   -0.491225
     34          1           0       -8.321880   -0.129159   -0.357431
     35          1           0       -7.330326   -2.354283    0.067360
     36          1           0       -4.901973   -2.621689    0.363736
     37          1           0        3.048585    2.754296    1.212168
     38          1           0        4.772710    2.494849    1.122044
     39          1           0        4.082538    4.295496   -0.452515
     40          1           0        4.728911    2.924468   -1.364544
     41          1           0        2.978199    3.187215   -1.279982
     42          1           0       -1.531667   -1.329317    1.302601
     43          1           0       -3.027666   -2.224702    1.351768
     44          1           0       -1.276100   -1.972556   -1.168349
     45          1           0       -1.359149   -3.379171   -0.096017
     46          1           0       -2.775672   -2.899604   -1.040801
 ---------------------------------------------------------------------
 Rotational constants (GHZ):           0.5429629           0.0715335           0.0638922
 Standard basis: 6-311+G(2d,p) (5D, 7F)
 There are   867 symmetry adapted cartesian basis functions of A   symmetry.
 There are   817 symmetry adapted basis functions of A   symmetry.
   817 basis functions,  1246 primitive gaussians,   867 cartesian basis functions
    96 alpha electrons       96 beta electrons
       nuclear repulsion energy      2285.6548009337 Hartrees.
 NAtoms=   46 NActive=   46 NUniq=   46 SFac= 1.00D+00 NAtFMM=   60 NAOKFM=F Big=F
 Integral buffers will be    131072 words long.
 Regular integral format.
 Two-electron integral symmetry is turned on.
 ------------------------------------------------------------------------------
 Polarizable Continuum Model (PCM)
 =================================
 Model                : PCM.
 Atomic radii         : SMD-Coulomb.
 Polarization charges : Total charges.
 Charge compensation  : None.
 Solution method      : On-the-fly selection.
 Cavity type          : VdW (van der Waals Surface) (Alpha=1.000).
 Cavity algorithm     : GePol (No added spheres)
                        Default sphere list used, NSphG=   46.
                        Lebedev-Laikov grids with approx.  5.0 points / Ang**2.
                        Smoothing algorithm: York/Karplus (Gamma=1.0000).
                        Polarization charges: spherical gaussians, with
                                              point-specific exponents (IZeta= 3).
                        Self-potential: point-specific (ISelfS= 7).
                        Self-field    : sphere-specific E.n sum rule (ISelfD= 2).
 Solvent              : Ethanol, Eps=  24.852000 Eps(inf)=   1.852593
 ------------------------------------------------------------------------------
 ------------------------------------------------------------------------------
 Atomic radii for non-electrostatic terms: SMD-CDS.
 ------------------------------------------------------------------------------
 Nuclear repulsion after PCM non-electrostatic terms =     2285.6487450168 Hartrees.
 One-electron integrals computed using PRISM.
 NBasis=   817 RedAO= T EigKep=  1.03D-06  NBF=   817
 NBsUse=   811 1.00D-06 EigRej=  8.97D-07 NBFU=   811
 ExpMin= 4.05D-02 ExpMax= 9.34D+04 ExpMxC= 3.17D+03 IAcc=3 IRadAn=         5 AccDes= 0.00D+00
 Harris functional with IExCor=  402 and IRadAn=       5 diagonalized for initial guess.
 HarFok:  IExCor=  402 AccDes= 0.00D+00 IRadAn=         5 IDoV= 1 UseB2=F ITyADJ=14
 ICtDFT=  3500011 ScaDFX=  1.000000  1.000000  1.000000  1.000000
 FoFCou: FMM=F IPFlag=           0 FMFlag=      100000 FMFlg1=           0
         NFxFlg=           0 DoJE=T BraDBF=F KetDBF=T FulRan=T
         wScrn=  0.000000 ICntrl=       500 IOpCl=  0 I1Cent=   200000004 NGrid=           0
         NMat0=    1 NMatS0=      1 NMatT0=    0 NMatD0=    1 NMtDS0=    0 NMtDT0=    0
 Petite list used in FoFCou.
 Requested convergence on RMS density matrix=1.00D-08 within 128 cycles.
 Requested convergence on MAX density matrix=1.00D-06.
 Requested convergence on             energy=1.00D-06.
 No special actions if energy rises.
 Inv3:  Mode=1 IEnd=    37446267.
 Iteration    1 A*A^-1 deviation from unit magnitude is 3.33D-15 for   2473.
 Iteration    1 A*A^-1 deviation from orthogonality  is 2.18D-15 for   2440   2261.
 Iteration    1 A^-1*A deviation from unit magnitude is 3.33D-15 for   2473.
 Iteration    1 A^-1*A deviation from orthogonality  is 2.22D-15 for   2427     48.
 Error on total polarization charges =  0.06500
 SCF Done:  E(RB3LYP) =  -1718.96160391     A.U. after   14 cycles
            NFock= 14  Conv=0.61D-08     -V/T= 2.0031
 SMD-CDS (non-electrostatic) energy       (kcal/mol) =      -3.80
 (included in total energy above)
 DoSCS=F DFT=T ScalE2(SS,OS)=  1.000000  1.000000
 ExpMin= 4.05D-02 ExpMax= 9.34D+04 ExpMxC= 3.17D+03 IAcc=3 IRadAn=         5 AccDes= 0.00D+00
 HarFok:  IExCor=  205 AccDes= 0.00D+00 IRadAn=         5 IDoV=-2 UseB2=F ITyADJ=14
 ICtDFT= 12500011 ScaDFX=  1.000000  1.000000  1.000000  1.000000
 GSVD:  LWork=       -1353 too small for GESVD, short by        5940 words or        5940 for optimal perf.
 Range of M.O.s used for correlation:    34   811
 NBasis=   817 NAE=    96 NBE=    96 NFC=    33 NFV=     0
 NROrb=    778 NOA=    63 NOB=    63 NVA=   715 NVB=   715

 **** Warning!!: The largest alpha MO coefficient is  0.13265338D+03

 NEqPCM:  Using non-equilibrium solvation (IEInf=1, Eps=  24.8520, EpsInf=   1.8526)
 Inv3:  Mode=1 IEnd=    37446267.
 Iteration    1 A*A^-1 deviation from unit magnitude is 4.00D-15 for    895.
 Iteration    1 A*A^-1 deviation from orthogonality  is 2.18D-15 for   1360    236.
 Iteration    1 A^-1*A deviation from unit magnitude is 4.22D-15 for    895.
 Iteration    1 A^-1*A deviation from orthogonality  is 2.00D-15 for   2171   1272.
 Orbital symmetries:
       Occupied  (A) (A) (A) (A) (A) (A) (A) (A) (A) (A) (A) (A)
                 (A) (A) (A) (A) (A) (A) (A) (A) (A) (A) (A) (A)
                 (A) (A) (A) (A) (A) (A) (A) (A) (A) (A) (A) (A)
                 (A) (A) (A) (A) (A) (A) (A) (A) (A) (A) (A) (A)
                 (A) (A) (A) (A) (A) (A) (A) (A) (A) (A) (A) (A)
                 (A) (A) (A) (A) (A) (A) (A) (A) (A) (A) (A) (A)
                 (A) (A) (A) (A) (A) (A) (A) (A) (A) (A) (A) (A)
                 (A) (A) (A) (A) (A) (A) (A) (A) (A) (A) (A) (A)
       Virtual   (A) (A) (A) (A) (A) (A) (A) (A) (A) (A) (A) (A)
                 (A) (A) (A) (A) (A) (A) (A) (A) (A) (A) (A) (A)
                 (A) (A) (A) (A) (A) (A) (A) (A) (A) (A) (A) (A)
                 (A) (A) (A) (A) (A) (A) (A) (A) (A) (A) (A) (A)
                 (A) (A) (A) (A) (A) (A) (A) (A) (A) (A) (A) (A)
                 (A) (A) (A) (A) (A) (A) (A) (A) (A) (A) (A) (A)
                 (A) (A) (A) (A) (A) (A) (A) (A) (A) (A) (A) (A)
                 (A) (A) (A) (A) (A) (A) (A) (A) (A) (A) (A) (A)
                 (A) (A) (A) (A) (A) (A) (A) (A) (A) (A) (A) (A)
                 (A) (A) (A) (A) (A) (A) (A) (A) (A) (A) (A) (A)
                 (A) (A) (A) (A) (A) (A) (A) (A) (A) (A) (A) (A)
                 (A) (A) (A) (A) (A) (A) (A) (A) (A) (A) (A) (A)
                 (A) (A) (A) (A) (A) (A) (A) (A) (A) (A) (A) (A)
                 (A) (A) (A) (A) (A) (A) (A) (A) (A) (A) (A) (A)
                 (A) (A) (A) (A) (A) (A) (A) (A) (A) (A) (A) (A)
                 (A) (A) (A) (A) (A) (A) (A) (A) (A) (A) (A) (A)
                 (A) (A) (A) (A) (A) (A) (A) (A) (A) (A) (A) (A)
                 (A) (A) (A) (A) (A) (A) (A) (A) (A) (A) (A) (A)
                 (A) (A) (A) (A) (A) (A) (A) (A) (A) (A) (A) (A)
                 (A) (A) (A) (A) (A) (A) (A) (A) (A) (A) (A) (A)
                 (A) (A) (A) (A) (A) (A) (A) (A) (A) (A) (A) (A)
                 (A) (A) (A) (A) (A) (A) (A) (A) (A) (A) (A) (A)
                 (A) (A) (A) (A) (A) (A) (A) (A) (A) (A) (A) (A)
                 (A) (A) (A) (A) (A) (A) (A) (A) (A) (A) (A) (A)
                 (A) (A) (A) (A) (A) (A) (A) (A) (A) (A) (A) (A)
                 (A) (A) (A) (A) (A) (A) (A) (A) (A) (A) (A) (A)
                 (A) (A) (A) (A) (A) (A) (A) (A) (A) (A) (A) (A)
                 (A) (A) (A) (A) (A) (A) (A) (A) (A) (A) (A) (A)
                 (A) (A) (A) (A) (A) (A) (A) (A) (A) (A) (A) (A)
                 (A) (A) (A) (A) (A) (A) (A) (A) (A) (A) (A) (A)
                 (A) (A) (A) (A) (A) (A) (A) (A) (A) (A) (A) (A)
                 (A) (A) (A) (A) (A) (A) (A) (A) (A) (A) (A) (A)
                 (A) (A) (A) (A) (A) (A) (A) (A) (A) (A) (A) (A)
                 (A) (A) (A) (A) (A) (A) (A) (A) (A) (A) (A) (A)
                 (A) (A) (A) (A) (A) (A) (A) (A) (A) (A) (A) (A)
                 (A) (A) (A) (A) (A) (A) (A) (A) (A) (A) (A) (A)
                 (A) (A) (A) (A) (A) (A) (A) (A) (A) (A) (A) (A)
                 (A) (A) (A) (A) (A) (A) (A) (A) (A) (A) (A) (A)
                 (A) (A) (A) (A) (A) (A) (A) (A) (A) (A) (A) (A)
                 (A) (A) (A) (A) (A) (A) (A) (A) (A) (A) (A) (A)
                 (A) (A) (A) (A) (A) (A) (A) (A) (A) (A) (A) (A)
                 (A) (A) (A) (A) (A) (A) (A) (A) (A) (A) (A) (A)
                 (A) (A) (A) (A) (A) (A) (A) (A) (A) (A) (A) (A)
                 (A) (A) (A) (A) (A) (A) (A) (A) (A) (A) (A) (A)
                 (A) (A) (A) (A) (A) (A) (A) (A) (A) (A) (A) (A)
                 (A) (A) (A) (A) (A) (A) (A) (A) (A) (A) (A) (A)
                 (A) (A) (A) (A) (A) (A) (A) (A) (A) (A) (A) (A)
                 (A) (A) (A) (A) (A) (A) (A) (A) (A) (A) (A) (A)
                 (A) (A) (A) (A) (A) (A) (A) (A) (A) (A) (A) (A)
                 (A) (A) (A) (A) (A) (A) (A) (A) (A) (A) (A) (A)
                 (A) (A) (A) (A) (A) (A) (A) (A) (A) (A) (A) (A)
                 (A) (A) (A) (A) (A) (A) (A) (A) (A) (A) (A) (A)
                 (A) (A) (A) (A) (A) (A) (A) (A) (A) (A) (A) (A)
                 (A) (A) (A) (A) (A) (A) (A) (A) (A) (A) (A) (A)
                 (A) (A) (A) (A) (A) (A) (A) (A) (A) (A) (A) (A)
                 (A) (A) (A) (A) (A) (A) (A) (A) (A) (A) (A) (A)
                 (A) (A) (A) (A) (A) (A) (A) (A) (A) (A) (A) (A)
                 (A) (A) (A) (A) (A) (A) (A) (A) (A) (A) (A) (A)
                 (A) (A) (A) (A) (A) (A) (A) (A) (A) (A) (A) (A)
                 (A) (A) (A) (A) (A) (A) (A)
   600 initial guesses have been made.
 Convergence on wavefunction:    0.001000000000000
 Iteration     1 Dimension   600 NMult     0 NNew    600
 CISAX will form   320 AO SS matrices at one time.
 New state      4 was old state      8
 New state      7 was old state     10
 New state      8 was old state      4
 New state      9 was old state      7
 New state     10 was old state      9
 New state     11 was old state     12
 New state     12 was old state     11
 New state     13 was old state     14
 New state     14 was old state     13
 New state     17 was old state     18
 New state     18 was old state     36
 New state     19 was old state     25
 New state     20 was old state     17
 New state     21 was old state     40
 New state     22 was old state     33
 New state     24 was old state     28
 New state     25 was old state     24
 New state     26 was old state     27
 New state     27 was old state     37
 New state     28 was old state     31
 New state     29 was old state     19
 New state     30 was old state     22
 New state     31 was old state     46
 New state     32 was old state     35
 New state     33 was old state     38
 New state     34 was old state     32
 New state     35 was old state     29
 New state     36 was old state     41
 New state     37 was old state     20
 New state     38 was old state     44
 New state     39 was old state     30
 New state     40 was old state     21
 New state     41 was old state     34
 New state     42 was old state     43
 New state     43 was old state     49
 New state     44 was old state     63
 New state     45 was old state     51
 New state     46 was old state     60
 New state     47 was old state     39
 New state     48 was old state     47
 New state     49 was old state     48
 New state     50 was old state     55
 New state     51 was old state     50
 New state     52 was old state     42
 New state     53 was old state     62
 New state     54 was old state     53
 New state     55 was old state     56
 New state     56 was old state     64
 New state     58 was old state     59
 New state     59 was old state     58
 New state     60 was old state     69
 New state     61 was old state     68
 New state     62 was old state     67
 New state     63 was old state     71
 New state     64 was old state     65
 New state     65 was old state     66
 New state     66 was old state     76
 New state     67 was old state     73
 New state     68 was old state     80
 New state     69 was old state     77
 New state     71 was old state     81
 New state     73 was old state     74
 New state     74 was old state     52
 New state     75 was old state     79
 New state     76 was old state     90
 New state     77 was old state     78
 New state     78 was old state     61
 New state     79 was old state     89
 New state     80 was old state     83
 New state     81 was old state     96
 New state     82 was old state     85
 New state     83 was old state     95
 New state     84 was old state     87
 New state     85 was old state     84
 New state     87 was old state     88
 New state     88 was old state    137
 New state     89 was old state    111
 New state     90 was old state     91
 New state     91 was old state    104
 New state     93 was old state     97
 New state     94 was old state    146
 New state     95 was old state     93
 New state     96 was old state     94
 New state     97 was old state    100
 New state     98 was old state     99
 New state     99 was old state    103
 New state    100 was old state     75
 New state    101 was old state    108
 New state    103 was old state     98
 New state    104 was old state    101
 New state    105 was old state    109
 New state    107 was old state    118
 New state    108 was old state    110
 New state    109 was old state    115
 New state    110 was old state    114
 New state    111 was old state    122
 New state    112 was old state    105
 New state    113 was old state    121
 New state    114 was old state    117
 New state    115 was old state    126
 New state    116 was old state    119
 New state    117 was old state    120
 New state    118 was old state    124
 New state    119 was old state    123
 New state    120 was old state    107
 New state    121 was old state    140
 New state    122 was old state    127
 New state    123 was old state    132
 New state    124 was old state    130
 New state    126 was old state    128
 New state    127 was old state    113
 New state    128 was old state    144
 New state    129 was old state    139
 New state    130 was old state    112
 New state    131 was old state    135
 New state    132 was old state    136
 New state    133 was old state    129
 New state    134 was old state    131
 New state    135 was old state    138
 New state    136 was old state    134
 New state    137 was old state    155
 New state    138 was old state    193
 New state    139 was old state    196
 New state    140 was old state    143
 New state    141 was old state    150
 New state    142 was old state    148
 New state    143 was old state    157
 New state    144 was old state    142
 New state    145 was old state    156
 New state    146 was old state    162
 New state    147 was old state    141
 New state    148 was old state    154
 New state    149 was old state    169
 New state    150 was old state    160
 Iteration     2 Dimension   900 NMult   600 NNew    300
 New state      4 was old state      5
 New state      5 was old state      4
 New state      7 was old state      8
 New state      8 was old state      7
 New state     13 was old state     14
 New state     14 was old state     13
 New state     19 was old state     21
 New state     20 was old state     19
 New state     21 was old state     20
 New state     24 was old state     26
 New state     25 was old state     24
 New state     26 was old state     25
 New state     27 was old state     34
 New state     28 was old state     27
 New state     29 was old state     28
 New state     30 was old state     35
 New state     31 was old state     29
 New state     32 was old state     33
 New state     33 was old state     31
 New state     34 was old state     30
 New state     35 was old state     32
 New state     36 was old state     41
 New state     38 was old state     39
 New state     39 was old state     44
 New state     40 was old state     36
 New state     41 was old state     38
 New state     42 was old state     40
 New state     43 was old state     47
 New state     44 was old state     45
 New state     45 was old state     42
 New state     46 was old state     43
 New state     47 was old state     46
 New state     48 was old state     52
 New state     49 was old state     48
 New state     51 was old state     49
 New state     52 was old state     51
 New state     58 was old state     59
 New state     59 was old state     58
 New state     61 was old state     62
 New state     62 was old state     61
 New state     64 was old state     65
 New state     65 was old state     64
 New state     66 was old state     67
 New state     67 was old state     69
 New state     68 was old state     66
 New state     69 was old state     68
 New state     70 was old state     78
 New state     71 was old state     70
 New state     72 was old state     71
 New state     73 was old state     72
 New state     74 was old state     75
 New state     75 was old state     73
 New state     76 was old state     74
 New state     77 was old state     76
 New state     78 was old state     77
 New state     82 was old state    100
 New state     85 was old state     82
 New state     86 was old state     95
 New state     87 was old state     85
 New state     88 was old state     86
 New state     89 was old state     91
 New state     90 was old state     87
 New state     91 was old state     90
 New state     92 was old state     89
 New state     93 was old state     88
 New state     94 was old state     92
 New state     95 was old state     93
 New state     96 was old state     94
 New state     98 was old state     96
 New state     99 was old state    101
 New state    100 was old state     99
 New state    101 was old state     98
 New state    102 was old state    103
 New state    103 was old state    102
 New state    105 was old state    106
 New state    106 was old state    105
 New state    110 was old state    111
 New state    111 was old state    112
 No map to state    112
 New state    113 was old state    110
 New state    115 was old state    120
 New state    116 was old state    119
 New state    117 was old state    113
 New state    118 was old state    115
 New state    119 was old state    123
 New state    120 was old state    116
 New state    121 was old state    124
 New state    122 was old state    117
 New state    123 was old state    121
 New state    124 was old state    125
 New state    125 was old state    122
 New state    126 was old state    127
 New state    127 was old state    132
 New state    128 was old state    126
 New state    129 was old state    128
 New state    131 was old state    129
 New state    132 was old state    131
 New state    133 was old state    136
 New state    134 was old state    133
 New state    135 was old state    134
 New state    136 was old state    137
 New state    137 was old state    135
 New state    139 was old state    140
 New state    140 was old state    139
 New state    141 was old state    143
 New state    142 was old state    148
 New state    143 was old state    142
 New state    144 was old state    141
 New state    146 was old state    147
 New state    147 was old state    150
 New state    148 was old state    144
 New state    149 was old state    146
 New state    150 was old state    152
 Iteration     3 Dimension  1200 NMult   900 NNew    300
 Iteration     4 Dimension  1490 NMult  1200 NNew    290
 Iteration     5 Dimension  1578 NMult  1490 NNew     88
 ***********************************************************************
 Excited states from <AA,BB:AA,BB> singles matrix:
 ***********************************************************************
 
 Ground to excited state transition densities written to RWF  633
 Ground to excited state transition electric dipole moments (Au):
       state          X           Y           Z        Dip. S.      Osc.
         1         5.1579     -0.2286     -0.0023     26.6559      1.6775
         2        -0.4642     -0.3123     -0.0573      0.3163      0.0296
         3        -0.1204      0.3365     -0.0535      0.1306      0.0124
         4        -0.4005     -0.1390     -0.0569      0.1829      0.0179
         5         0.0730      0.1251     -0.0728      0.0263      0.0026
         6        -0.8809     -0.5327      0.0031      1.0598      0.1062
         7         0.2468     -0.4755      0.0352      0.2883      0.0291
         8        -0.1112     -0.0900     -0.0268      0.0212      0.0022
         9        -0.2473     -0.4250     -0.1562      0.2662      0.0280
        10        -0.0442     -0.5744     -0.0333      0.3330      0.0367
        11         0.0411      0.0839     -0.0069      0.0088      0.0010
        12         0.5801      0.1216      0.0047      0.3513      0.0410
        13         0.1508     -0.3469      0.0268      0.1438      0.0174
        14        -0.0416      0.0300     -0.0207      0.0031      0.0004
        15         0.1047      0.2522      0.1693      0.1032      0.0133
        16         0.1955     -0.0349     -0.0168      0.0397      0.0052
        17        -0.6950      0.1865      0.0059      0.5178      0.0682
        18         0.4731      0.0881      0.0672      0.2361      0.0312
        19         0.1094     -0.4697     -0.1002      0.2426      0.0322
        20         0.1658      0.0874     -0.0281      0.0359      0.0048
        21        -0.0046      0.1996      0.1164      0.0534      0.0071
        22         0.0470     -0.0267     -0.0230      0.0035      0.0005
        23        -0.2195     -0.3452     -0.0510      0.1700      0.0230
        24         0.5209     -0.4570      0.0442      0.4822      0.0655
        25        -0.2443      0.1710      0.1828      0.1224      0.0168
        26        -0.1025     -0.0070      0.2378      0.0671      0.0093
        27        -0.8459      0.1699      0.0372      0.7459      0.1038
        28         0.0215     -0.3162     -0.0359      0.1018      0.0142
        29        -0.3545     -0.3194     -0.0524      0.2304      0.0324
        30        -0.2283     -0.1983     -0.0062      0.0915      0.0129
        31        -0.1646      0.1353     -0.0213      0.0458      0.0066
        32        -0.2133     -0.0114      0.0554      0.0487      0.0070
        33        -0.0078     -0.0081      0.0582      0.0035      0.0005
        34        -0.0388     -0.0043     -0.0177      0.0018      0.0003
        35         0.1424      0.0798      0.0830      0.0335      0.0048
        36        -0.2443      0.0122     -0.0553      0.0629      0.0091
        37        -0.8748     -0.7080      0.0187      1.2669      0.1841
        38        -0.2205     -0.9794      0.0609      1.0115      0.1476
        39         0.6709     -0.2316      0.0074      0.5039      0.0739
        40         0.5486      0.0248      0.0101      0.3017      0.0446
        41        -0.3085      0.1165      0.0592      0.1123      0.0167
        42         0.5785     -0.1352      0.0341      0.3541      0.0529
        43        -0.6237      0.1129     -0.0393      0.4033      0.0604
        44         1.0335     -0.0231      0.0109      1.0688      0.1618
        45        -0.2133     -0.0050      0.0672      0.0500      0.0076
        46        -0.3831     -0.1160     -0.2936      0.2464      0.0377
        47        -0.1008     -0.0384      0.0147      0.0119      0.0018
        48         0.0921     -0.3169     -0.1217      0.1237      0.0190
        49         0.2131      0.0394     -0.1099      0.0590      0.0091
        50        -0.1989     -0.2512      0.0792      0.1089      0.0168
        51         0.0345      0.1506     -0.0449      0.0259      0.0040
        52         0.0792      0.0832      0.0119      0.0133      0.0021
        53        -0.0749     -0.0923      0.0267      0.0148      0.0023
        54        -0.3594     -0.0807     -0.0096      0.1358      0.0213
        55        -0.1095     -0.0306     -0.0499      0.0154      0.0024
        56        -0.3343      0.1975      0.0359      0.1520      0.0241
        57         0.0097      0.0093      0.0179      0.0005      0.0001
        58         0.4074     -0.0571     -0.0769      0.1751      0.0279
        59        -0.3865      0.2750     -0.0600      0.2286      0.0364
        60        -0.3197      0.4057     -0.0092      0.2669      0.0427
        61         0.1835      0.6310      0.0192      0.4322      0.0696
        62         0.9136      0.2701     -0.0065      0.9078      0.1464
        63        -0.4515     -0.2759      0.0200      0.2804      0.0453
        64        -0.2116      0.1135     -0.0143      0.0579      0.0094
        65        -0.4856     -0.1563     -0.0133      0.2604      0.0421
        66        -0.3385     -0.3121      0.0295      0.2128      0.0345
        67         0.5976     -0.1540      0.0280      0.3816      0.0621
        68        -0.1310      0.0182     -0.0175      0.0178      0.0029
        69         0.0190     -0.1198      0.0357      0.0160      0.0026
        70         0.1801     -0.1616      0.1031      0.0692      0.0114
        71        -0.3832     -0.1551     -0.0462      0.1730      0.0286
        72        -0.2540     -0.0394     -0.0160      0.0663      0.0110
        73         0.1243      0.2044     -0.1412      0.0772      0.0128
        74         0.2580      0.1659      0.0319      0.0951      0.0158
        75         0.0508     -0.0611     -0.0934      0.0150      0.0025
        76         0.0981     -0.0091     -0.0055      0.0097      0.0016
        77         0.0261     -0.1145     -0.0165      0.0141      0.0024
        78         0.0409      0.0166      0.0804      0.0084      0.0014
        79         0.0498     -0.0474     -0.0656      0.0090      0.0015
        80        -0.0141     -0.1065     -0.2975      0.1001      0.0170
        81        -0.0462      0.3196     -0.2213      0.1533      0.0261
        82        -0.1682      0.2316      0.0553      0.0850      0.0145
        83         0.1115      0.0835     -0.0852      0.0267      0.0045
        84        -0.0332     -0.0814     -0.0194      0.0081      0.0014
        85        -0.0630     -0.0111      0.0857      0.0114      0.0020
        86         0.0929     -0.0322      0.1016      0.0200      0.0034
        87        -0.1105     -0.0552      0.0165      0.0155      0.0027
        88        -0.0451     -0.0103     -0.1817      0.0351      0.0061
        89        -0.1253      0.0405     -0.0751      0.0230      0.0040
        90        -0.0475     -0.0069     -0.0378      0.0037      0.0006
        91        -0.1527      0.0421     -0.1249      0.0407      0.0071
        92        -0.1178      0.1361     -0.0012      0.0324      0.0056
        93         0.0987     -0.1731     -0.0923      0.0482      0.0084
        94        -0.0280     -0.1672     -0.1861      0.0634      0.0110
        95        -0.0405      0.0996     -0.2397      0.0690      0.0121
        96        -0.0367      0.0665     -0.0117      0.0059      0.0010
        97        -0.0744      0.0815     -0.0531      0.0150      0.0026
        98        -0.1559      0.0575     -0.0593      0.0311      0.0055
        99         0.2192      0.0056     -0.0127      0.0482      0.0085
       100         0.0374     -0.1381     -0.0865      0.0280      0.0049
       101         0.1726     -0.1782     -0.0633      0.0656      0.0116
       102         0.0375     -0.1890     -0.0081      0.0372      0.0066
       103         0.2014     -0.1866     -0.0020      0.0754      0.0134
       104        -0.2345     -0.0042     -0.1226      0.0700      0.0125
       105        -0.1174     -0.5665     -0.0515      0.3374      0.0601
       106         0.3917     -0.4885      0.0460      0.3941      0.0703
       107         0.2978     -0.5543      0.0772      0.4019      0.0719
       108         0.1011     -0.2719     -0.0467      0.0863      0.0155
       109        -0.1998      0.7177     -0.0661      0.5594      0.1002
       110         0.3260     -0.5490      0.0041      0.4077      0.0732
       111        -0.0995      0.2477      0.1136      0.0842      0.0151
       112         0.0530     -0.0057     -0.0265      0.0035      0.0006
       113         0.1008     -0.1070     -0.2188      0.0695      0.0125
       114         0.3777     -0.6040     -0.0700      0.5124      0.0924
       115        -0.5498      0.0632     -0.0834      0.3132      0.0566
       116         0.3024      0.1725     -0.0233      0.1218      0.0222
       117         0.2216     -0.1035      0.0214      0.0603      0.0110
       118         0.1253      0.1304      0.1488      0.0549      0.0100
       119        -0.0376     -0.1076      0.0413      0.0147      0.0027
       120         0.0317      0.1217      0.1895      0.0517      0.0095
       121         0.1282      0.0223     -0.0648      0.0211      0.0039
       122         0.0797     -0.0196      0.0885      0.0146      0.0027
       123        -0.0438     -0.2943      0.0992      0.0984      0.0181
       124        -0.1257      0.0995      0.0968      0.0351      0.0065
       125         0.0082     -0.1230     -0.0604      0.0188      0.0035
       126        -0.0741      0.1540      0.0067      0.0293      0.0054
       127        -0.1731     -0.3158     -0.0238      0.1302      0.0241
       128        -0.1065     -0.0169      0.0942      0.0205      0.0038
       129        -0.0920     -0.1612     -0.0497      0.0369      0.0069
       130        -0.0541     -0.0728      0.0493      0.0107      0.0020
       131        -0.2189     -0.1412      0.0183      0.0682      0.0127
       132         0.1321      0.1341      0.0463      0.0376      0.0070
       133         0.0026     -0.0790      0.0328      0.0073      0.0014
       134        -0.0866      0.0573      0.0018      0.0108      0.0020
       135         0.1248      0.0332     -0.0050      0.0167      0.0031
       136         0.1491      0.0014      0.1076      0.0338      0.0063
       137         0.0691      0.0038     -0.0054      0.0048      0.0009
       138         0.0975      0.0290     -0.1121      0.0229      0.0043
       139         0.1062     -0.0363     -0.0858      0.0200      0.0038
       140        -0.1136     -0.0764     -0.1124      0.0314      0.0059
       141         0.0557      0.1581     -0.0210      0.0285      0.0054
       142         0.2881      0.0017     -0.1266      0.0990      0.0187
       143         0.1585     -0.0028      0.0725      0.0304      0.0058
       144         0.0649     -0.0723      0.0119      0.0096      0.0018
       145         0.1272      0.0038      0.0255      0.0168      0.0032
       146        -0.4257      0.0497     -0.0666      0.1881      0.0358
       147        -0.1152     -0.1864      0.0432      0.0499      0.0095
       148         0.4857     -0.2236     -0.0153      0.2861      0.0546
       149        -0.4526      0.1407     -0.1306      0.2416      0.0462
       150        -0.1567      0.0637      0.0448      0.0306      0.0059
 Ground to excited state transition velocity dipole moments (Au):
       state          X           Y           Z        Dip. S.      Osc.
         1        -0.4879      0.0229      0.0003      0.2386      1.6847
         2         0.0652      0.0443      0.0081      0.0063      0.0298
         3         0.0172     -0.0486      0.0076      0.0027      0.0127
         4         0.0586      0.0203      0.0086      0.0039      0.0178
         5        -0.0110     -0.0186      0.0118      0.0006      0.0027
         6         0.1321      0.0823     -0.0004      0.0242      0.1074
         7        -0.0379      0.0720     -0.0053      0.0066      0.0293
         8         0.0168      0.0143      0.0037      0.0005      0.0022
         9         0.0395      0.0670      0.0247      0.0067      0.0281
        10         0.0065      0.0966      0.0056      0.0094      0.0379
        11        -0.0071     -0.0150      0.0007      0.0003      0.0011
        12        -0.1021     -0.0217     -0.0006      0.0109      0.0415
        13        -0.0275      0.0631     -0.0053      0.0048      0.0176
        14         0.0074     -0.0049      0.0086      0.0002      0.0005
        15        -0.0210     -0.0493     -0.0334      0.0040      0.0138
        16        -0.0394      0.0069      0.0032      0.0016      0.0054
        17         0.1389     -0.0378     -0.0016      0.0207      0.0700
        18        -0.0924     -0.0180     -0.0134      0.0090      0.0304
        19        -0.0211      0.0943      0.0202      0.0097      0.0326
        20        -0.0335     -0.0173      0.0054      0.0014      0.0048
        21         0.0009     -0.0399     -0.0232      0.0021      0.0071
        22        -0.0096      0.0056      0.0040      0.0001      0.0005
        23         0.0450      0.0706      0.0108      0.0071      0.0234
        24        -0.1066      0.0940     -0.0087      0.0203      0.0663
        25         0.0495     -0.0343     -0.0388      0.0051      0.0166
        26         0.0213      0.0023     -0.0460      0.0026      0.0083
        27         0.1765     -0.0367     -0.0085      0.0326      0.1039
        28        -0.0040      0.0662      0.0068      0.0044      0.0141
        29         0.0750      0.0680      0.0114      0.0104      0.0328
        30         0.0480      0.0412      0.0014      0.0040      0.0127
        31         0.0353     -0.0291      0.0054      0.0021      0.0066
        32         0.0450      0.0031     -0.0092      0.0021      0.0066
        33         0.0015      0.0024     -0.0151      0.0002      0.0007
        34         0.0085      0.0009      0.0039      0.0001      0.0003
        35        -0.0308     -0.0172     -0.0189      0.0016      0.0049
        36         0.0541     -0.0022      0.0100      0.0030      0.0093
        37         0.1895      0.1567     -0.0034      0.0605      0.1848
        38         0.0474      0.2166     -0.0135      0.0493      0.1502
        39        -0.1490      0.0512     -0.0015      0.0248      0.0752
        40        -0.1225     -0.0037     -0.0019      0.0150      0.0451
        41         0.0689     -0.0263     -0.0141      0.0056      0.0168
        42        -0.1302      0.0295     -0.0077      0.0179      0.0531
        43         0.1405     -0.0241      0.0091      0.0204      0.0605
        44        -0.2353      0.0048     -0.0026      0.0554      0.1626
        45         0.0490      0.0011     -0.0162      0.0027      0.0078
        46         0.0877      0.0263      0.0711      0.0134      0.0390
        47         0.0230      0.0090     -0.0048      0.0006      0.0018
        48        -0.0213      0.0740      0.0290      0.0068      0.0196
        49        -0.0498     -0.0082      0.0262      0.0032      0.0093
        50         0.0458      0.0582     -0.0218      0.0060      0.0172
        51        -0.0070     -0.0345      0.0098      0.0013      0.0038
        52        -0.0189     -0.0199     -0.0010      0.0008      0.0022
        53         0.0176      0.0219     -0.0066      0.0008      0.0024
        54         0.0844      0.0195      0.0021      0.0075      0.0212
        55         0.0260      0.0077      0.0121      0.0009      0.0025
        56         0.0799     -0.0462     -0.0081      0.0086      0.0240
        57        -0.0035     -0.0027     -0.0028      0.0000      0.0001
        58        -0.0941      0.0138      0.0179      0.0094      0.0262
        59         0.0879     -0.0651      0.0133      0.0121      0.0339
        60         0.0785     -0.0979      0.0029      0.0157      0.0437
        61        -0.0446     -0.1528     -0.0030      0.0254      0.0700
        62        -0.2216     -0.0661      0.0008      0.0535      0.1474
        63         0.1091      0.0668     -0.0054      0.0164      0.0451
        64         0.0520     -0.0276      0.0034      0.0035      0.0096
        65         0.1170      0.0382      0.0037      0.0152      0.0416
        66         0.0843      0.0756     -0.0076      0.0129      0.0353
        67        -0.1465      0.0380     -0.0067      0.0230      0.0627
        68         0.0315     -0.0046      0.0050      0.0010      0.0028
        69        -0.0052      0.0296     -0.0083      0.0010      0.0026
        70        -0.0451      0.0405     -0.0237      0.0042      0.0114
        71         0.0954      0.0390      0.0124      0.0108      0.0290
        72         0.0630      0.0100      0.0049      0.0041      0.0110
        73        -0.0303     -0.0517      0.0326      0.0047      0.0125
        74        -0.0630     -0.0408     -0.0068      0.0057      0.0152
        75        -0.0123      0.0144      0.0219      0.0008      0.0022
        76        -0.0243      0.0023      0.0015      0.0006      0.0016
        77        -0.0068      0.0291      0.0055      0.0009      0.0024
        78        -0.0096     -0.0034     -0.0215      0.0006      0.0015
        79        -0.0147      0.0147      0.0177      0.0007      0.0020
        80         0.0034      0.0270      0.0764      0.0066      0.0172
        81         0.0128     -0.0802      0.0578      0.0099      0.0259
        82         0.0442     -0.0591     -0.0143      0.0056      0.0147
        83        -0.0287     -0.0220      0.0222      0.0018      0.0047
        84         0.0081      0.0203      0.0071      0.0005      0.0014
        85         0.0147      0.0036     -0.0229      0.0008      0.0019
        86        -0.0256      0.0074     -0.0254      0.0014      0.0035
        87         0.0303      0.0151     -0.0052      0.0012      0.0030
        88         0.0102      0.0023      0.0486      0.0025      0.0064
        89         0.0317     -0.0101      0.0190      0.0015      0.0038
        90         0.0113      0.0018      0.0103      0.0002      0.0006
        91         0.0392     -0.0095      0.0307      0.0026      0.0066
        92         0.0317     -0.0332      0.0012      0.0021      0.0054
        93        -0.0253      0.0423      0.0228      0.0030      0.0075
        94         0.0065      0.0433      0.0476      0.0042      0.0107
        95         0.0101     -0.0252      0.0626      0.0046      0.0118
        96         0.0088     -0.0171      0.0018      0.0004      0.0009
        97         0.0170     -0.0210      0.0131      0.0009      0.0023
        98         0.0397     -0.0156      0.0156      0.0021      0.0052
        99        -0.0581     -0.0019      0.0058      0.0034      0.0086
       100        -0.0116      0.0360      0.0218      0.0019      0.0048
       101        -0.0453      0.0471      0.0170      0.0046      0.0115
       102        -0.0090      0.0505      0.0023      0.0026      0.0066
       103        -0.0534      0.0481      0.0011      0.0052      0.0130
       104         0.0622      0.0005      0.0326      0.0049      0.0123
       105         0.0311      0.1518      0.0142      0.0242      0.0604
       106        -0.1045      0.1297     -0.0116      0.0279      0.0695
       107        -0.0792      0.1489     -0.0209      0.0289      0.0718
       108        -0.0279      0.0733      0.0135      0.0063      0.0157
       109         0.0538     -0.1923      0.0170      0.0402      0.0996
       110        -0.0893      0.1485     -0.0024      0.0300      0.0744
       111         0.0250     -0.0665     -0.0294      0.0059      0.0146
       112        -0.0150      0.0021      0.0083      0.0003      0.0007
       113        -0.0273      0.0295      0.0599      0.0052      0.0129
       114        -0.1026      0.1643      0.0194      0.0379      0.0935
       115         0.1491     -0.0173      0.0229      0.0231      0.0567
       116        -0.0832     -0.0474      0.0066      0.0092      0.0225
       117        -0.0604      0.0283     -0.0067      0.0045      0.0110
       118        -0.0343     -0.0359     -0.0414      0.0042      0.0102
       119         0.0101      0.0298     -0.0106      0.0011      0.0027
       120        -0.0084     -0.0330     -0.0518      0.0038      0.0093
       121        -0.0344     -0.0049      0.0189      0.0016      0.0038
       122        -0.0221      0.0045     -0.0239      0.0011      0.0026
       123         0.0111      0.0822     -0.0283      0.0077      0.0186
       124         0.0344     -0.0277     -0.0259      0.0026      0.0063
       125        -0.0017      0.0314      0.0169      0.0013      0.0031
       126         0.0198     -0.0417     -0.0015      0.0021      0.0051
       127         0.0482      0.0868      0.0075      0.0099      0.0238
       128         0.0300      0.0050     -0.0268      0.0016      0.0039
       129         0.0267      0.0461      0.0134      0.0030      0.0072
       130         0.0151      0.0202     -0.0142      0.0008      0.0020
       131         0.0611      0.0382     -0.0051      0.0052      0.0124
       132        -0.0364     -0.0378     -0.0138      0.0029      0.0070
       133        -0.0014      0.0223     -0.0092      0.0006      0.0014
       134         0.0255     -0.0157     -0.0006      0.0009      0.0021
       135        -0.0355     -0.0088      0.0018      0.0013      0.0032
       136        -0.0424      0.0002     -0.0311      0.0028      0.0065
       137        -0.0207     -0.0004      0.0012      0.0004      0.0010
       138        -0.0273     -0.0081      0.0310      0.0018      0.0042
       139        -0.0288      0.0092      0.0241      0.0015      0.0035
       140         0.0317      0.0229      0.0312      0.0025      0.0059
       141        -0.0153     -0.0463      0.0056      0.0024      0.0057
       142        -0.0828     -0.0007      0.0366      0.0082      0.0193
       143        -0.0461      0.0021     -0.0211      0.0026      0.0061
       144        -0.0186      0.0213     -0.0030      0.0008      0.0019
       145        -0.0374      0.0000     -0.0054      0.0014      0.0033
       146         0.1196     -0.0147      0.0190      0.0149      0.0347
       147         0.0307      0.0505     -0.0131      0.0037      0.0086
       148        -0.1398      0.0657      0.0045      0.0239      0.0556
       149         0.1312     -0.0400      0.0379      0.0202      0.0471
       150         0.0462     -0.0193     -0.0132      0.0027      0.0062
 Ground to excited state transition magnetic dipole moments (Au):
       state          X           Y           Z
         1         0.0446     -0.3219      1.3582
         2        -0.0322      0.0405      0.0085
         3         0.0918     -0.0125     -0.0356
         4        -0.0155     -0.0578      0.4142
         5         0.0518     -0.0773      0.4788
         6         0.0250     -0.1862      0.0565
         7         0.0371     -0.1198     -1.3898
         8        -0.1441     -0.1449      0.2736
         9        -0.0631      0.0727      1.3347
        10         0.0241     -0.2443      0.4361
        11        -0.2628     -0.0493     -0.0440
        12         0.1145      0.0711      0.1095
        13         0.0265      0.0256     -0.6132
        14        -0.1453      0.1122      0.0672
        15        -0.1143      0.0405      0.1101
        16        -0.0548     -0.6152     -0.0147
        17         0.0849      0.0625     -0.2862
        18         0.1087     -0.2397     -0.1281
        19        -0.0075     -0.1714      0.9984
        20         0.1027      0.4582     -0.2519
        21         0.1282      0.2786     -0.0680
        22        -0.2928     -0.3491      0.0610
        23         0.0252      0.0098      1.0002
        24        -0.0363     -0.1264     -0.2321
        25         0.0829     -0.0953     -0.4428
        26        -0.0391     -0.0930     -0.2110
        27        -0.0754      0.2322     -1.2409
        28        -0.0337     -0.1950      0.3027
        29        -0.1116     -0.0261      0.3174
        30        -0.0957      0.3123      0.1565
        31        -0.0200      0.0709      0.5049
        32        -0.0685      0.1642      0.3139
        33         0.0203      0.1110      0.2448
        34         0.0246     -0.0704      0.0794
        35         0.0218     -0.0344      0.0381
        36         0.0715     -0.0644      0.2927
        37         0.0418     -0.3500     -0.3680
        38         0.0276     -0.1736     -1.9785
        39         0.0745     -0.3815      0.3712
        40        -0.0548     -0.0520      0.5659
        41         0.0240     -0.0720      0.2829
        42        -0.0309     -0.1158     -1.3642
        43        -0.0616      0.0047      2.1704
        44        -0.0654     -0.2767      1.2667
        45         0.0177      0.0894     -0.4503
        46         0.0529     -0.2887      0.5798
        47        -0.1494      0.0802      0.1815
        48        -0.0446      0.2728      1.2136
        49        -0.2108      0.2152      0.2647
        50        -0.0292     -0.2699      0.6347
        51         0.0088     -0.1790     -0.5348
        52         0.1080     -0.1328     -0.0057
        53        -0.1150      0.2326      0.2663
        54        -0.1101      0.0247     -0.1852
        55         0.3810      0.0491      0.2160
        56        -0.0388      0.1519     -0.8537
        57        -0.0292     -0.2833      0.3975
        58        -0.2007      0.1552      0.8043
        59        -0.0178      0.2229      0.1959
        60        -0.0315      0.1368     -0.0392
        61        -0.1061      0.1528      1.5034
        62        -0.0093     -0.2590      0.1274
        63        -0.1009      0.0093     -1.4435
        64        -0.0410     -0.1950      0.7821
        65        -0.1173     -0.7235      0.1252
        66        -0.0459      0.1365     -0.0684
        67        -0.3605      0.0089     -0.2877
        68         0.0899      0.0165      0.3190
        69         0.2972      0.0629     -1.0873
        70        -0.0648     -0.2424     -1.5140
        71         0.3653     -0.4696     -0.5459
        72         0.0443     -0.2568      0.1900
        73        -0.1949     -0.3644      0.0156
        74        -0.0056      0.3478      0.1246
        75         0.1398      0.0939      0.1473
        76        -0.2208     -0.0915      0.1391
        77         0.2682      0.2626     -0.1400
        78         0.0453      0.1979     -0.1831
        79         0.0724      0.1653      0.0182
        80        -0.2889     -0.0103     -0.0744
        81         0.2234      0.3897      0.0909
        82        -0.2063     -0.1567     -0.2122
        83        -0.2976      0.0540      0.1935
        84        -0.0149     -0.1399      0.0689
        85        -0.0158      0.1774      0.2832
        86         0.1939      0.0642     -0.0417
        87        -0.0755     -0.0993     -0.2740
        88        -0.0514     -0.0802     -0.0501
        89        -0.0031     -0.5797      0.1780
        90         0.0457      0.4003      0.0595
        91        -0.1245     -0.1849      0.0776
        92        -0.0811      0.3486     -0.4175
        93         0.0610     -0.3625     -0.0401
        94         0.0033      0.0825      0.4816
        95         0.0877      0.5864      0.0117
        96        -0.1041      0.3013      0.0009
        97         0.0351     -0.1958     -0.2735
        98        -0.1119      0.3715      0.1476
        99        -0.0681      0.0830     -0.9171
       100        -0.0129      0.4720      0.1298
       101        -0.0579      0.2394     -0.7142
       102        -0.0085      0.3801      0.5751
       103        -0.0276      0.1394     -0.1338
       104        -0.0319     -0.1513      1.3663
       105        -0.0244      0.2334      2.3778
       106         0.0212     -0.2963     -0.4405
       107         0.1628     -0.4244      0.0539
       108         0.1948     -0.5477      0.6312
       109         0.4271      0.3546     -1.0003
       110        -0.1710     -0.2307     -0.2624
       111         0.0794      0.3785     -0.2286
       112         0.0427      0.1560      0.2780
       113        -0.2626     -0.5033     -0.2959
       114        -0.0573     -0.1177      0.6992
       115        -0.0295      0.0012      2.7255
       116        -0.0566      0.0820      0.5236
       117        -0.0222      0.0344     -0.3136
       118        -0.2904     -0.0847     -0.0951
       119        -0.0170     -0.0152     -0.2626
       120         0.0031     -0.4300      0.3376
       121         0.0571      0.1482      0.2051
       122         0.1033      0.0233     -0.4984
       123        -0.1768      0.3623      0.5269
       124         0.0072      0.1825     -0.3776
       125        -0.0054      0.0266      0.4343
       126        -0.1680     -0.0371      0.7636
       127        -0.0486     -0.2531     -0.5022
       128         0.0863      0.3569     -0.3539
       129         0.0413      0.0306     -0.1444
       130         0.4601     -0.0507      0.4177
       131        -0.2258      0.0131      0.0193
       132        -0.2509     -0.2682     -0.0900
       133        -0.2413     -0.1510      0.0802
       134        -0.2326     -0.0740      0.1646
       135        -0.0669     -0.0390     -0.0484
       136         0.2508      0.3868     -0.2944
       137        -0.2207     -0.0240      0.1919
       138         0.0877     -0.1252     -0.3216
       139        -0.1336      0.4108     -0.3946
       140         0.0183      0.2154     -0.4199
       141         0.0874      0.3121      0.3172
       142         0.1603      0.1610      0.9081
       143        -0.0290     -0.0904     -0.6211
       144        -0.1746     -0.1591     -0.1378
       145         0.4613     -0.2904     -0.0053
       146        -0.0860      0.0837      0.8559
       147         0.1012      0.1621      0.5762
       148         0.1192      0.5458     -0.3344
       149         0.1536      0.5634      0.7892
       150        -0.2796     -0.1805      0.2962
 Ground to excited state transition velocity quadrupole moments (Au):
       state          XX          YY          ZZ          XY          XZ          YZ
         1         0.2680     -0.0641     -0.0054      0.1838      0.0397     -0.0523
         2        -0.1788      0.0304     -0.0088      0.2997      0.0166      0.0034
         3        -0.4148     -0.0833     -0.0025      0.3001     -0.0517      0.0098
         4        -1.1023     -0.1636     -0.0128      0.1402     -0.0005     -0.0010
         5         0.4948     -0.0140     -0.0148      0.2287     -0.0566     -0.0080
         6         1.2011      0.0015     -0.0114     -0.4041      0.0856     -0.0018
         7        -2.3902      0.0735      0.0051     -0.7457      0.0306     -0.0140
[...]
    34  H    0.443816  -0.069668   0.012973   0.000000  -0.000000  -0.000001
    35  H   -0.073597   0.408945  -0.019368  -0.000000   0.000000   0.001370
    36  H    0.015528  -0.023435   0.463278   0.000000  -0.000000  -0.005256
    37  H    0.000000   0.000000   0.000003   0.396115  -0.024058   0.000096
    38  H    0.000000  -0.000000  -0.000000   0.392770  -0.033939  -0.000006
    39  H    0.000000  -0.000000  -0.000000  -0.024411   0.399727  -0.000000
    40  H   -0.000000   0.000000   0.000000  -0.051541   0.430993  -0.000001
    41  H   -0.000000   0.000000  -0.000000  -0.043074   0.421692  -0.000013
    42  H   -0.000029   0.001496   0.009051   0.000079  -0.000030   0.405944
    43  H   -0.000387   0.016923   0.014701   0.000008  -0.000001   0.394830
    44  H    0.000124  -0.001281  -0.005360   0.000027  -0.000017  -0.039492
    45  H   -0.000190  -0.000675  -0.002412   0.000016  -0.000003  -0.035399
    46  H    0.001540   0.009870   0.025493  -0.000002  -0.000000  -0.055146
              25         26         27         28         29         30
     1  C   -0.005880   0.455260  -0.031607   0.079958  -0.000477  -0.000058
     2  C    0.059947  -0.033337   0.393650   0.009702  -0.000482   0.000017
     3  C    0.029219  -0.062329  -0.050373   0.340883  -0.000128   0.000003
     4  C   -0.033440  -0.012293   0.012164  -0.097329   0.000035   0.000000
     5  C   -0.001795  -0.021614  -0.037936  -0.020809   0.008054  -0.000614
     6  S   -0.071009   0.000299  -0.001506  -0.031705   0.000000   0.000000
     7  C    0.005984  -0.000013   0.004648   0.014349   0.000000  -0.000000
     8  C   -0.130791  -0.000208   0.000764   0.013332  -0.000000   0.000000
     9  N    0.035366  -0.000275   0.007177   0.002648   0.000000  -0.000000
    10  S   -0.012016   0.022871   0.017047   0.002118  -0.007262   0.001540
    11  C   -0.000848  -0.000959   0.008091  -0.000129  -0.016816   0.005599
    12  C    0.002136   0.002699  -0.002540  -0.001228   0.006663  -0.004222
    13  N   -0.000275  -0.009259  -0.000778  -0.000038   0.002456   0.000696
    14  C    0.000360  -0.001542  -0.000735  -0.000002   0.361097  -0.052550
    15  C   -0.000282  -0.000032   0.000231   0.000004  -0.043786   0.453718
    16  C    0.000085   0.000025  -0.000003  -0.000006   0.031468  -0.079243
    17  C    0.000155  -0.007386  -0.000071  -0.000053  -0.005347   0.024131
    18  C    0.010924   0.000002   0.000445   0.001947  -0.000000  -0.000000
    19  C    0.010702   0.000001   0.000100   0.000328   0.000000   0.000000
    20  C    0.021032  -0.000003  -0.000110  -0.000260   0.000000   0.000000
    21  C    0.105956   0.000046   0.002668   0.004132   0.000001   0.000000
    22  C   -0.000091  -0.000333  -0.001419  -0.000514  -0.000026   0.000043
    23  C    0.000025  -0.005997   0.000164   0.000202   0.000087   0.000009
    24  C   -0.137081  -0.000811  -0.029064  -0.008599   0.000008   0.000000
    25  C    5.410486   0.000024   0.000257   0.002186   0.000014  -0.000000
    26  H    0.000024   0.520103   0.005934   0.006094   0.000001   0.000000
    27  H    0.000257   0.005934   0.558382   0.006924   0.000006  -0.000000
    28  H    0.002186   0.006094   0.006924   0.531381   0.000000  -0.000000
    29  H    0.000014   0.000001   0.000006   0.000000   0.515005  -0.004339
    30  H   -0.000000   0.000000  -0.000000  -0.000000  -0.004339   0.527180
    31  H   -0.000000  -0.000000   0.000000  -0.000000  -0.000308  -0.004773
    32  H   -0.000000  -0.000018   0.000000   0.000000   0.000053  -0.000298
    33  H   -0.000041   0.000000   0.000000  -0.000006   0.000000  -0.000000
    34  H    0.000012   0.000000  -0.000000  -0.000000  -0.000000   0.000000
    35  H   -0.000034   0.000000   0.000000   0.000000   0.000000  -0.000000
    36  H   -0.000239  -0.000000   0.000004   0.000002   0.000000   0.000000
    37  H   -0.000015   0.000679  -0.000002  -0.000021   0.000000  -0.000000
    38  H    0.000002   0.000321   0.000005   0.000001   0.000001  -0.000000
    39  H   -0.000000   0.000177   0.000000   0.000001   0.000000  -0.000000
    40  H    0.000001   0.000081  -0.000000  -0.000000  -0.000001  -0.000000
    41  H    0.000001  -0.000693  -0.000004  -0.000001   0.000000  -0.000000
    42  H   -0.025995  -0.000017  -0.005277  -0.000146   0.000000   0.000000
    43  H   -0.036385   0.000002   0.000823   0.000036   0.000000   0.000000
    44  H    0.412478  -0.000002  -0.000167  -0.000036  -0.000000   0.000000
    45  H    0.415558   0.000001  -0.000362  -0.000002   0.000000   0.000000
    46  H    0.427056   0.000000   0.000290   0.000000  -0.000000   0.000000
              31         32         33         34         35         36
     1  C    0.000035  -0.003558   0.000064  -0.000000   0.000000  -0.000081
     2  C    0.000003  -0.000190  -0.000363  -0.000013   0.000055  -0.001288
     3  C   -0.000002  -0.000006   0.000399   0.000092  -0.000066   0.000901
     4  C    0.000000   0.000005   0.008166  -0.001569  -0.000506   0.005627
     5  C   -0.001572   0.018427  -0.000003  -0.000000   0.000000  -0.000003
     6  S   -0.000000   0.000000  -0.013002  -0.000230   0.000261  -0.002348
     7  C    0.000000   0.000000   0.005450  -0.026616   0.012818  -0.001205
     8  C    0.000000   0.000000   0.014745   0.008301   0.009820  -0.113390
     9  N   -0.000000   0.000000   0.001488   0.000568   0.000033  -0.000377
    10  S   -0.000500  -0.001809  -0.000000  -0.000000   0.000000   0.000002
    11  C    0.001130   0.043432  -0.000000   0.000000  -0.000000  -0.000000
    12  C    0.010861  -0.138503  -0.000000   0.000000  -0.000000   0.000000
    13  N   -0.000106  -0.003490  -0.000000  -0.000000  -0.000000   0.000000
    14  C    0.017335  -0.015609  -0.000000  -0.000000   0.000000   0.000000
    15  C   -0.079333   0.027381  -0.000000  -0.000000   0.000000   0.000000
    16  C    0.433920  -0.069701  -0.000000   0.000000  -0.000000  -0.000000
    17  C   -0.035828   0.494316   0.000000   0.000000  -0.000000   0.000000
    18  C   -0.000000   0.000000   0.346459  -0.018661   0.007636   0.007250
    19  C   -0.000000   0.000000  -0.042305   0.443816  -0.073597   0.015528
    20  C   -0.000000  -0.000000   0.029772  -0.069668   0.408945  -0.023435
    21  C   -0.000000   0.000000  -0.012985   0.012973  -0.019368   0.463278
    22  C    0.000642   0.001147   0.000000   0.000000  -0.000000   0.000000
    23  C    0.000055  -0.003839   0.000000  -0.000000   0.000000  -0.000000
    24  C   -0.000000   0.000000  -0.000263  -0.000001   0.001370  -0.005256
    25  C   -0.000000  -0.000000  -0.000041   0.000012  -0.000034  -0.000239
    26  H   -0.000000  -0.000018   0.000000   0.000000   0.000000  -0.000000
    27  H    0.000000   0.000000   0.000000  -0.000000   0.000000   0.000004
    28  H   -0.000000   0.000000  -0.000006  -0.000000   0.000000   0.000002
    29  H   -0.000308   0.000053   0.000000  -0.000000   0.000000   0.000000
    30  H   -0.004773  -0.000298  -0.000000   0.000000  -0.000000   0.000000
    31  H    0.530990  -0.005123   0.000000  -0.000000  -0.000000   0.000000
    32  H   -0.005123   0.509711  -0.000000  -0.000000   0.000000   0.000000
    33  H    0.000000  -0.000000   0.514538  -0.004592  -0.000297   0.000053
    34  H   -0.000000  -0.000000  -0.004592   0.526415  -0.004812  -0.000294
    35  H   -0.000000   0.000000  -0.000297  -0.004812   0.530759  -0.005305
    36  H    0.000000   0.000000   0.000053  -0.000294  -0.005305   0.507986
    37  H   -0.000000   0.000113   0.000000  -0.000000   0.000000  -0.000000
    38  H    0.000028   0.000923   0.000000  -0.000000   0.000000   0.000000
    39  H   -0.000001   0.000089  -0.000000  -0.000000   0.000000   0.000000
    40  H   -0.000003  -0.000345  -0.000000  -0.000000  -0.000000   0.000000
    41  H    0.000000   0.000026   0.000000   0.000000  -0.000000   0.000000
    42  H   -0.000000  -0.000000   0.000000  -0.000000  -0.000001   0.000128
    43  H   -0.000000  -0.000000   0.000002   0.000000   0.000012   0.000351
    44  H   -0.000000   0.000000   0.000000  -0.000000  -0.000000   0.000079
    45  H   -0.000000  -0.000000   0.000000  -0.000000  -0.000001   0.000047
    46  H    0.000000   0.000000  -0.000000  -0.000000  -0.000003  -0.000480
              37         38         39         40         41         42
     1  C    0.011141   0.004836  -0.013058   0.009807   0.017721  -0.029469
     2  C    0.012241   0.005146  -0.002571   0.001274  -0.000065  -0.026122
     3  C    0.001649   0.000854  -0.000329   0.000942  -0.003192   0.053954
     4  C    0.002196   0.000098   0.000128  -0.000048  -0.000924   0.046981
     5  C   -0.002944  -0.002158   0.014101  -0.021943  -0.014015  -0.012511
     6  S    0.000043   0.000001   0.000005   0.000002  -0.000051  -0.002464
     7  C    0.000023   0.000000   0.000001  -0.000000  -0.000011  -0.001317
     8  C    0.000013   0.000000   0.000000  -0.000000  -0.000001  -0.022714
     9  N   -0.000013  -0.000000  -0.000000   0.000000  -0.000001  -0.035316
    10  S   -0.002783  -0.000738   0.002432  -0.003835  -0.003080  -0.004135
    11  C   -0.005478  -0.016827   0.002286  -0.003576   0.002830  -0.000381
    12  C   -0.017013  -0.010502   0.010348  -0.020740  -0.000229   0.000885
    13  N   -0.031014  -0.036175  -0.001471   0.009986   0.007748  -0.000168
    14  C   -0.001996  -0.000752  -0.000799   0.004347   0.001313  -0.000184
    15  C   -0.000031   0.000816   0.000107  -0.000162  -0.000065  -0.000042
    16  C    0.001021   0.020811  -0.002885   0.008204   0.000452   0.000012
    17  C    0.011063   0.022245  -0.007166   0.021754  -0.001738   0.000067
    18  C   -0.000000   0.000000   0.000000  -0.000000  -0.000000  -0.000027
    19  C    0.000000   0.000000   0.000000  -0.000000  -0.000000  -0.000029
    20  C    0.000000  -0.000000  -0.000000   0.000000   0.000000   0.001496
    21  C    0.000003  -0.000000  -0.000000   0.000000  -0.000000   0.009051
    22  C    0.396115   0.392770  -0.024411  -0.051541  -0.043074   0.000079
    23  C   -0.024058  -0.033939   0.399727   0.430993   0.421692  -0.000030
    24  C    0.000096  -0.000006  -0.000000  -0.000001  -0.000013   0.405944
    25  C   -0.000015   0.000002  -0.000000   0.000001   0.000001  -0.025995
    26  H    0.000679   0.000321   0.000177   0.000081  -0.000693  -0.000017
    27  H   -0.000002   0.000005   0.000000  -0.000000  -0.000004  -0.005277
    28  H   -0.000021   0.000001   0.000001  -0.000000  -0.000001  -0.000146
    29  H    0.000000   0.000001   0.000000  -0.000001   0.000000   0.000000
    30  H   -0.000000  -0.000000  -0.000000  -0.000000  -0.000000   0.000000
    31  H   -0.000000   0.000028  -0.000001  -0.000003   0.000000  -0.000000
    32  H    0.000113   0.000923   0.000089  -0.000345   0.000026  -0.000000
    33  H    0.000000   0.000000  -0.000000  -0.000000   0.000000   0.000000
    34  H   -0.000000  -0.000000  -0.000000  -0.000000   0.000000  -0.000000
    35  H    0.000000   0.000000   0.000000  -0.000000  -0.000000  -0.000001
    36  H   -0.000000   0.000000   0.000000   0.000000   0.000000   0.000128
    37  H    0.523876  -0.025193  -0.001995   0.005092  -0.006863  -0.000001
    38  H   -0.025193   0.525564  -0.001934  -0.006333   0.005610  -0.000000
    39  H   -0.001995  -0.001934   0.526036  -0.025095  -0.023840   0.000000
    40  H    0.005092  -0.006333  -0.025095   0.522884  -0.030702   0.000000
    41  H   -0.006863   0.005610  -0.023840  -0.030702   0.523077  -0.000000
    42  H   -0.000001  -0.000000   0.000000   0.000000  -0.000000   0.514461
    43  H   -0.000000  -0.000000  -0.000000   0.000000  -0.000000  -0.023065
    44  H   -0.000000  -0.000000   0.000000   0.000000   0.000000  -0.006200
    45  H   -0.000000  -0.000000  -0.000000   0.000000   0.000000  -0.004237
    46  H   -0.000000   0.000000   0.000000   0.000000   0.000000   0.005436
              43         44         45         46
     1  C    0.003521   0.007921   0.000002  -0.001503
     2  C    0.024619   0.020537  -0.002224  -0.007050
     3  C   -0.008873  -0.014179   0.000063   0.004178
     4  C   -0.014262  -0.010544  -0.003435   0.010742
     5  C    0.001255   0.003005  -0.000973  -0.000141
     6  S   -0.000721  -0.001152   0.001152  -0.002234
     7  C   -0.001651   0.000554   0.000122  -0.000122
     8  C   -0.012026  -0.001455   0.006241  -0.039907
     9  N   -0.030621   0.003872   0.004802   0.010485
    10  S    0.000353   0.003062  -0.000998   0.000196
    11  C    0.000013   0.000410  -0.000142  -0.000019
    12  C   -0.000028  -0.000251  -0.000065   0.000038
    13  N   -0.000001   0.000006   0.000004  -0.000001
    14  C    0.000023   0.000287  -0.000090  -0.000007
    15  C    0.000000   0.000022  -0.000001  -0.000001
    16  C    0.000000   0.000001  -0.000001   0.000000
    17  C   -0.000002  -0.000037   0.000003   0.000002
    18  C   -0.002239   0.000053  -0.000038   0.000457
    19  C   -0.000387   0.000124  -0.000190   0.001540
    20  C    0.016923  -0.001281  -0.000675   0.009870
    21  C    0.014701  -0.005360  -0.002412   0.025493
    22  C    0.000008   0.000027   0.000016  -0.000002
    23  C   -0.000001  -0.000017  -0.000003  -0.000000
    24  C    0.394830  -0.039492  -0.035399  -0.055146
    25  C   -0.036385   0.412478   0.415558   0.427056
    26  H    0.000002  -0.000002   0.000001   0.000000
    27  H    0.000823  -0.000167  -0.000362   0.000290
    28  H    0.000036  -0.000036  -0.000002   0.000000
    29  H    0.000000  -0.000000   0.000000  -0.000000
    30  H    0.000000   0.000000   0.000000   0.000000
    31  H   -0.000000  -0.000000  -0.000000   0.000000
    32  H   -0.000000   0.000000  -0.000000   0.000000
    33  H    0.000002   0.000000   0.000000  -0.000000
    34  H    0.000000  -0.000000  -0.000000  -0.000000
    35  H    0.000012  -0.000000  -0.000001  -0.000003
    36  H    0.000351   0.000079   0.000047  -0.000480
    37  H   -0.000000  -0.000000  -0.000000  -0.000000
    38  H   -0.000000  -0.000000  -0.000000   0.000000
    39  H   -0.000000   0.000000  -0.000000   0.000000
    40  H    0.000000   0.000000   0.000000   0.000000
    41  H   -0.000000   0.000000   0.000000   0.000000
    42  H   -0.023065  -0.006200  -0.004237   0.005436
    43  H    0.516628   0.005428  -0.001558  -0.007110
    44  H    0.005428   0.523127  -0.026177  -0.028357
    45  H   -0.001558  -0.026177   0.514570  -0.024210
    46  H   -0.007110  -0.028357  -0.024210   0.518649
 Mulliken charges:
               1
     1  C   -0.318294
     2  C    0.017232
     3  C   -0.350336
     4  C    0.566951
     5  C    0.522998
     6  S   -0.477118
     7  C    0.542220
     8  C    0.464848
     9  N    0.162079
    10  S   -0.570894
    11  C    1.039703
    12  C    0.168836
    13  N    0.166921
    14  C   -0.756700
    15  C   -0.046690
    16  C   -0.259718
    17  C   -0.292788
    18  C   -0.412841
    19  C   -0.268291
    20  C   -0.278175
    21  C   -0.331911
    22  C   -0.242110
    23  C   -0.421535
    24  C   -0.241022
    25  C   -0.493748
    26  H    0.142504
    27  H    0.142181
    28  H    0.144656
    29  H    0.154022
    30  H    0.133162
    31  H    0.132549
    32  H    0.146866
    33  H    0.152720
    34  H    0.134279
    35  H    0.132281
    36  H    0.152465
    37  H    0.154058
    38  H    0.154528
    39  H    0.150118
    40  H    0.148959
    41  H    0.148094
    42  H    0.161356
    43  H    0.159401
    44  H    0.153714
    45  H    0.160612
    46  H    0.151859
 Sum of Mulliken charges =   1.00000
 Mulliken charges with hydrogens summed into heavy atoms:
               1
     1  C   -0.175790
     2  C    0.159414
     3  C   -0.205680
     4  C    0.566951
     5  C    0.522998
     6  S   -0.477118
     7  C    0.542220
     8  C    0.464848
     9  N    0.162079
    10  S   -0.570894
    11  C    1.039703
    12  C    0.168836
    13  N    0.166921
    14  C   -0.602678
    15  C    0.086471
    16  C   -0.127169
    17  C   -0.145922
    18  C   -0.260120
    19  C   -0.134013
    20  C   -0.145895
    21  C   -0.179445
    22  C    0.066475
    23  C    0.025636
    24  C    0.079735
    25  C   -0.027564
 Electronic spatial extent (au):  <R**2>=          15563.6030
 Charge=              1.0000 electrons
 Dipole moment (field-independent basis, Debye):
    X=              1.1786    Y=              0.3787    Z=              1.2546  Tot=              1.7626
 Quadrupole moment (field-independent basis, Debye-Ang):
   XX=            -55.2865   YY=           -126.1103   ZZ=           -166.8608
   XY=             15.7374   XZ=              1.6289   YZ=              0.9141
 Traceless Quadrupole moment (field-independent basis, Debye-Ang):
   XX=             60.7994   YY=            -10.0244   ZZ=            -50.7749
   XY=             15.7374   XZ=              1.6289   YZ=              0.9141
 Octapole moment (field-independent basis, Debye-Ang**2):
  XXX=              9.6437  YYY=             -0.6281  ZZZ=              4.2901  XYY=             27.3140
  XXY=              2.9992  XXZ=             -6.2691  XZZ=              2.1896  YZZ=              3.5958
  YYZ=              4.8491  XYZ=             29.3494
 Hexadecapole moment (field-independent basis, Debye-Ang**3):
 XXXX=         -13872.0064 YYYY=          -2341.2300 ZZZZ=           -334.2858 XXXY=            115.9441
 XXXZ=            157.5900 YYYX=             84.9884 YYYZ=             17.2366 ZZZX=             -0.1776
 ZZZY=             -2.8475 XXYY=          -2889.1412 XXZZ=          -3436.3329 YYZZ=           -502.8580
 XXYZ=             21.3612 YYXZ=            -11.0497 ZZXY=             36.8688
 N-N= 2.285648745017D+03 E-N=-8.581890048404D+03  KE= 1.713678303236D+03
 Unable to Open any file for archive entry.
 1\1\GINC-CN12\SP\RB3LYP TD-FC\6-311+G(2d,p)\C21H21N2S2(1+)\2100011873\
 02-Nov-2023\0\\# td=(nstates=150) b3lyp/6-311+g(2d,p) scrf(smd, solven
 t=ethanol)\\A-2\\1,1\C,0,1.185932,1.124188,0.259065\C,0,-0.064042,0.51
 8894,0.184736\C,0,-1.255062,1.232433,0.206071\C,0,-2.576908,0.775971,0
 .134368\C,0,2.392634,0.431471,0.171283\S,0,-3.827667,1.970009,-0.18707
 5\C,0,-5.077877,0.744792,-0.134775\C,0,-4.509195,-0.50864,0.113846\N,0
 ,-3.118372,-0.458179,0.279721\S,0,2.505198,-1.300121,-0.125106\C,0,4.2
 60315,-1.225762,-0.102553\C,0,4.688784,0.08701,0.119416\N,0,3.627512,0
 .981655,0.287411\C,0,5.159317,-2.267461,-0.279503\C,0,6.517913,-1.9735
 96,-0.237257\C,0,6.95394,-0.663841,-0.025333\C,0,6.051566,0.378213,0.1
 53458\C,0,-6.446804,0.904176,-0.304215\C,0,-7.251229,-0.226106,-0.2264
 08\C,0,-6.689747,-1.482485,0.014868\C,0,-5.320051,-1.640504,0.18625\C,
 0,3.847144,2.415669,0.55458\C,0,3.911762,3.249637,-0.717632\C,0,-2.369
 369,-1.660308,0.692423\C,0,-1.918854,-2.522991,-0.47911\H,0,1.228852,2
 .199196,0.376562\H,0,-0.096636,-0.556945,0.072235\H,0,-1.165193,2.3143
 7,0.224199\H,0,4.813961,-3.279951,-0.448352\H,0,7.240415,-2.768718,-0.
 37396\H,0,8.015538,-0.449707,-0.002068\H,0,6.406822,1.388085,0.306065\
 H,0,-6.875736,1.880738,-0.491225\H,0,-8.32188,-0.129159,-0.357431\H,0,
 -7.330326,-2.354283,0.06736\H,0,-4.901973,-2.621689,0.363736\H,0,3.048
 585,2.754296,1.212168\H,0,4.77271,2.494849,1.122044\H,0,4.082538,4.295
 496,-0.452515\H,0,4.728911,2.924468,-1.364544\H,0,2.978199,3.187215,-1
 .279982\H,0,-1.531667,-1.329317,1.302601\H,0,-3.027666,-2.224702,1.351
 768\H,0,-1.2761,-1.972556,-1.168349\H,0,-1.359149,-3.379171,-0.096017\
 H,0,-2.775672,-2.899604,-1.040801\\Version=ES64L-G16RevC.02\State=1-A\
 HF=-1718.9616039\RMSD=6.134e-09\PG=C01 [X(C21H21N2S2)]\\@
 The archive entry for this job was punched.


 Sometimes the fool who rushes in gets the job done.
                                    -- Al Bernstein
 Job cpu time:       3 days  0 hours 20 minutes 16.1 seconds.
 Elapsed time:       0 days  2 hours 20 minutes 13.9 seconds.
 File lengths (MBytes):  RWF=  30080 Int=      0 D2E=      0 Chk=   2800 Scr=     32
 Normal termination of Gaussian 16 at Thu Nov  2 21:19:33 2023.
