 Entering Gaussian System, Link 0=g16
 Input=Linux-A1.gjf
 Output=Linux-A1.log
 Initial command:
 /nfs-share/home/2100011873/Gaussian16_AVX2/g16/l1.exe "/nfs-share/home/2100011873/GaussTmp/Gau-140058.inp" -scrdir="/nfs-share/home/2100011873/GaussTmp/"
 Entering Link 1 = /nfs-share/home/2100011873/Gaussian16_AVX2/g16/l1.exe PID=    140060.
  
 Copyright (c) 1988-2021, Gaussian, Inc.  All Rights Reserved.
  
 This is part of the Gaussian(R) 16 program.  It is based on
 the Gaussian(R) 09 system (copyright 2009, Gaussian, Inc.),
 the Gaussian(R) 03 system (copyright 2003, Gaussian, Inc.),
 the Gaussian(R) 98 system (copyright 1998, Gaussian, Inc.),
 the Gaussian(R) 94 system (copyright 1995, Gaussian, Inc.),
 the Gaussian 92(TM) system (copyright 1992, Gaussian, Inc.),
 the Gaussian 90(TM) system (copyright 1990, Gaussian, Inc.),
 the Gaussian 88(TM) system (copyright 1988, Gaussian, Inc.),
 the Gaussian 86(TM) system (copyright 1986, Carnegie Mellon
 University), and the Gaussian 82(TM) system (copyright 1983,
 Carnegie Mellon University). Gaussian is a federally registered
 trademark of Gaussian, Inc.
  
 This software contains proprietary and confidential information,
 including trade secrets, belonging to Gaussian, Inc.
  
 This software is provided under written license and may be
 used, copied, transmitted, or stored only in accord with that
 written license.
  
 The following legend is applicable only to US Government
 contracts under FAR:
  
                    RESTRICTED RIGHTS LEGEND
  
 Use, reproduction and disclosure by the US Government is
 subject to restrictions as set forth in subparagraphs (a)
 and (c) of the Commercial Computer Software - Restricted
 Rights clause in FAR 52.227-19.
  
 Gaussian, Inc.
 340 Quinnipiac St., Bldg. 40, Wallingford CT 06492
  
  
 ---------------------------------------------------------------
 Warning -- This program may not be used in any manner that
 competes with the business of Gaussian, Inc. or will provide
 assistance to any competitor of Gaussian, Inc.  The licensee
 of this program is prohibited from giving any competitor of
 Gaussian, Inc. access to this program.  By using this program,
 the user acknowledges that Gaussian, Inc. is engaged in the
 business of creating and licensing software in the field of
 computational chemistry and represents and warrants to the
 licensee that it is not a competitor of Gaussian, Inc. and that
 it will not use this program in any manner prohibited above.
 ---------------------------------------------------------------
  

 Cite this work as:
 Gaussian 16, Revision C.02,
 M. J. Frisch, G. W. Trucks, H. B. Schlegel, G. E. Scuseria, 
 M. A. Robb, J. R. Cheeseman, G. Scalmani, V. Barone, 
 G. A. Petersson, H. Nakatsuji, X. Li, M. Caricato, A. V. Marenich, 
 J. Bloino, B. G. Janesko, R. Gomperts, B. Mennucci, H. P. Hratchian, 
 J. V. Ortiz, A. F. Izmaylov, J. L. Sonnenberg, D. Williams-Young, 
 F. Ding, F. Lipparini, F. Egidi, J. Goings, B. Peng, A. Petrone, 
 T. Henderson, D. Ranasinghe, V. G. Zakrzewski, J. Gao, N. Rega, 
 G. Zheng, W. Liang, M. Hada, M. Ehara, K. Toyota, R. Fukuda, 
 J. Hasegawa, M. Ishida, T. Nakajima, Y. Honda, O. Kitao, H. Nakai, 
 T. Vreven, K. Throssell, J. A. Montgomery, Jr., J. E. Peralta, 
 F. Ogliaro, M. J. Bearpark, J. J. Heyd, E. N. Brothers, K. N. Kudin, 
 V. N. Staroverov, T. A. Keith, R. Kobayashi, J. Normand, 
 K. Raghavachari, A. P. Rendell, J. C. Burant, S. S. Iyengar, 
 J. Tomasi, M. Cossi, J. M. Millam, M. Klene, C. Adamo, R. Cammi, 
 J. W. Ochterski, R. L. Martin, K. Morokuma, O. Farkas, 
 J. B. Foresman, and D. J. Fox, Gaussian, Inc., Wallingford CT, 2019.
 
 ******************************************
 Gaussian 16:  ES64L-G16RevC.02  7-Dec-2021
                 2-Nov-2023 
 ******************************************
 %nprocshared=32
 Will use up to   32 processors via shared memory.
 %mem=128GB
 -----------------------------------------------------------------
 # td=(nstates=150) b3lyp/6-311+g(2d,p) scrf(smd, solvent=ethanol)
 -----------------------------------------------------------------
 1/38=1,172=1/1;
 2/12=2,17=6,18=5,40=1/2;
 3/5=4,6=6,7=112,11=9,25=1,30=1,70=32201,72=4,74=-5/1,2,3,8;
 4//1;
 5/5=2,38=5,53=4/2;
 8/6=1,10=2,108=150/1;
 9/41=150,42=1,70=2/14;
 6/7=2,8=2,9=2,10=2/1;
 99/5=1,9=1/99;
 ---
 A-1
 ---
 Symbolic Z-matrix:
 Charge =  1 Multiplicity = 1
 C                    -1.25921   0.2167   -0.03937 
 C                     0.        0.82894  -0.00012 
 C                     1.25921   0.21668   0.03925 
 N                     2.43346   0.90485   0.146 
 S                    -1.55756  -1.51215   0.05388 
 C                    -3.29767  -1.25882  -0.02728 
 C                    -3.5899    0.10887  -0.1183 
 N                    -2.43347   0.90486  -0.14611 
 S                     1.55755  -1.51217  -0.05392 
 C                     3.29766  -1.25885   0.0273 
 C                     3.5899    0.10884   0.11825 
 C                    -4.30157  -2.22442  -0.00362 
 C                    -5.62465  -1.79213  -0.06698 
 C                    -5.92564  -0.42569  -0.14901 
 C                    -4.92039   0.53827  -0.17427 
 C                     4.30156  -2.22445   0.00372 
 C                     5.62464  -1.79215   0.06707 
 C                     5.92564  -0.42571   0.14902 
 C                     4.92038   0.53826   0.17421 
 C                    -2.51035   2.37353  -0.25723 
 C                    -2.56643   3.07379   1.10152 
 C                     2.51034   2.3735    0.2573 
 C                     2.56651   3.07393  -1.10136 
 H                     0.00001   1.90904  -0.00021 
 H                    -4.06058  -3.28031   0.06397 
 H                    -6.42724  -2.52213  -0.04909 
 H                    -6.96206  -0.10651  -0.19134 
 H                    -5.17675   1.59021  -0.22813 
 H                     4.06057  -3.28035  -0.06382 
 H                     6.42723  -2.52216   0.04923 
 H                     6.96205  -0.10653   0.19134 
 H                     5.17673   1.5902    0.22802 
 H                    -1.65749   2.70849  -0.85213 
 H                    -3.39812   2.59717  -0.85222 
 H                    -3.44119   2.75206   1.67457 
 H                    -1.67384   2.86336   1.69908 
 H                    -2.63423   4.15636   0.9543 
 H                     1.65744   2.70838   0.85218 
 H                     3.39807   2.59706   0.85237 
 H                     3.44133   2.75234  -1.67437 
 H                     1.67399   2.86351  -1.69903 
 H                     2.63421   4.15649  -0.95399 
 
                          Input orientation:                          
 ---------------------------------------------------------------------
 Center     Atomic      Atomic             Coordinates (Angstroms)
 Number     Number       Type             X           Y           Z
 ---------------------------------------------------------------------
      1          6           0       -1.259214    0.216698   -0.039367
      2          6           0        0.000003    0.828935   -0.000122
      3          6           0        1.259209    0.216684    0.039249
      4          7           0        2.433464    0.904848    0.145998
      5         16           0       -1.557561   -1.512152    0.053882
      6          6           0       -3.297665   -1.258824   -0.027283
      7          6           0       -3.589904    0.108866   -0.118299
      8          7           0       -2.433474    0.904863   -0.146106
      9         16           0        1.557549   -1.512171   -0.053923
     10          6           0        3.297657   -1.258850    0.027304
     11          6           0        3.589900    0.108842    0.118251
     12          6           0       -4.301571   -2.224422   -0.003624
     13          6           0       -5.624645   -1.792125   -0.066975
     14          6           0       -5.925643   -0.425687   -0.149009
     15          6           0       -4.920394    0.538274   -0.174272
     16          6           0        4.301563   -2.224450    0.003718
     17          6           0        5.624635   -1.792149    0.067066
     18          6           0        5.925635   -0.425707    0.149021
     19          6           0        4.920384    0.538258    0.174213
     20          6           0       -2.510348    2.373529   -0.257226
     21          6           0       -2.566433    3.073786    1.101522
     22          6           0        2.510339    2.373497    0.257299
     23          6           0        2.566508    3.073929   -1.101357
     24          1           0        0.000014    1.909040   -0.000214
     25          1           0       -4.060576   -3.280313    0.063971
     26          1           0       -6.427238   -2.522132   -0.049094
     27          1           0       -6.962056   -0.106514   -0.191342
     28          1           0       -5.176748    1.590213   -0.228130
     29          1           0        4.060566   -3.280345   -0.063815
     30          1           0        6.427230   -2.522156    0.049231
     31          1           0        6.962048   -0.106532    0.191339
     32          1           0        5.176733    1.590201    0.228019
     33          1           0       -1.657488    2.708489   -0.852128
     34          1           0       -3.398115    2.597174   -0.852215
     35          1           0       -3.441185    2.752064    1.674572
     36          1           0       -1.673838    2.863356    1.699082
     37          1           0       -2.634230    4.156364    0.954302
     38          1           0        1.657436    2.708379    0.852183
     39          1           0        3.398074    2.597059    0.852370
     40          1           0        3.441334    2.752344   -1.674368
     41          1           0        1.673988    2.863510   -1.699033
     42          1           0        2.634214    4.156493   -0.953990
 ---------------------------------------------------------------------
                    Distance matrix (angstroms):
                    1          2          3          4          5
     1  C    0.000000
     2  C    1.400715   0.000000
     3  C    2.519650   1.400715   0.000000
     4  N    3.760822   2.439026   1.365225   0.000000
     5  S    1.756880   2.812403   3.305039   4.666761   0.000000
     6  C    2.516465   3.903087   4.790266   6.128405   1.760320
     7  C    2.334518   3.663318   4.852870   6.081480   2.605334
     8  N    1.365229   2.439034   3.760832   4.875696   2.578600
     9  S    3.305050   2.812405   1.756880   2.578600   3.116975
    10  C    4.790278   3.903091   2.516468   2.332918   4.861894
    11  C    4.852874   3.663319   2.334522   1.404186   5.397047
    12  C    3.900805   5.275087   6.073147   7.428015   2.835529
    13  C    4.805530   6.205730   7.171753   8.500126   4.078500
    14  C    4.711713   6.058839   7.215967   8.469476   4.505742
    15  C    3.677751   4.932050   6.191648   7.369951   3.945244
    16  C    6.073162   5.275092   3.900810   3.647265   5.902476
    17  C    7.171762   6.205730   4.805531   4.178947   7.187664
    18  C    7.215970   6.058835   4.711714   3.737064   7.562251
    19  C    6.191643   4.932042   3.677748   2.513952   6.795766
    20  C    2.502942   2.958671   4.353095   5.173093   4.012868
    21  C    3.342664   3.583234   4.891523   5.533199   4.811050
    22  C    4.353082   2.958669   2.502941   1.474865   5.629161
    23  C    4.891599   3.583248   3.342733   2.505695   6.274923
    24  H    2.109789   1.080105   2.109786   2.636562   3.759458
    25  H    4.481896   5.777398   6.366295   7.726245   3.064568
    26  H    5.848911   7.248550   8.160293   9.502331   4.974376
    27  H    5.714015   7.027225   8.230846   9.455816   5.589680
    28  H    4.155628   5.237393   6.586320   7.650165   4.775219
    29  H    6.366315   5.777405   4.481901   4.495256   5.890985
    30  H    8.160306   7.248551   5.848913   5.263448   8.048417
    31  H    8.230848   7.027220   5.714015   4.640368   8.635879
    32  H    6.586305   5.237376   4.155620   2.828774   7.416578
    33  H    2.651080   2.646869   3.938371   4.580968   4.317945
    34  H    3.301861   3.924275   5.305856   6.153675   4.592952
    35  H    3.758546   4.283083   5.585350   6.345096   4.935404
    36  H    3.193574   3.134949   4.285170   4.808092   4.676032
    37  H    4.289407   4.349930   5.614024   6.075132   5.839696
    38  H    3.938297   2.646851   2.651036   2.086538   5.365293
    39  H    5.305812   3.924270   3.301832   2.071958   6.487027
    40  H    5.585506   4.283148   3.758687   2.782584   6.794242
    41  H    4.285298   3.134967   3.193643   2.795943   5.715071
    42  H    5.614027   4.349894   4.289436   3.438527   7.121820
                    6          7          8          9         10
     6  C    0.000000
     7  C    1.401522   0.000000
     8  N    2.332914   1.404178   0.000000
     9  S    4.861892   5.397053   4.666778   0.000000
    10  C    6.595548   7.023556   6.128425   1.760325   0.000000
    11  C    7.023549   7.183700   6.081494   2.605336   1.401520
    12  C    1.393114   2.442100   3.647261   5.902467   7.660389
    13  C    2.387639   2.785062   4.178945   7.187660   8.938722
    14  C    2.759566   2.396324   3.737060   7.562252   9.262533
    15  C    2.425782   1.399188   2.513951   6.795775   8.414669
    16  C    7.660396   8.230097   7.428039   2.835538   1.393114
    17  C    8.938723   9.410417   8.500143   4.078506   2.387638
    18  C    9.262528   9.534291   8.469488   4.505748   2.759567
    19  C    8.414656   8.526133   7.369955   3.945246   2.425783
    20  C    3.723806   2.512656   1.474868   5.629190   6.856242
    21  C    4.536564   3.365443   2.505690   6.274813   7.369751
    22  C    6.856213   6.517867   5.173095   4.012865   3.723803
    23  C    7.369865   6.903580   5.533279   4.811178   4.536676
    24  H    4.572831   4.017721   2.636573   3.759453   4.572826
    25  H    2.162586   3.426556   4.495252   5.890972   7.630940
    26  H    3.375004   3.870065   5.263445   8.048408   9.806901
    27  H    3.844801   3.379813   4.640365   8.635880  10.326538
    28  H    3.418816   2.173597   2.828778   7.416596   8.944157
    29  H    7.630953   8.367760   7.726273   3.064577   2.162585
    30  H    9.806908  10.358249   9.502352   4.974385   3.375004
    31  H   10.326533  10.558691   9.455825   5.589685   3.844802
    32  H    8.944135   8.897652   7.650157   4.775217   3.418816
    33  H    4.371513   3.321261   2.086549   5.365404   6.408326
    34  H    3.944531   2.601364   2.071965   6.487110   7.776621
    35  H    4.359373   3.197343   2.782535   6.794022   8.013296
    36  H    4.754947   3.815940   2.795972   5.714904   6.671071
    37  H    5.543277   4.294884   3.438526   7.121785   8.085243
    38  H    6.408212   5.935813   4.580916   4.317875   4.371459
    39  H    7.776538   7.480985   6.153652   4.592893   3.944471
    40  H    8.013518   7.671221   6.345245   4.935643   4.359588
    41  H    6.671261   6.147792   4.808235   4.676166   4.755039
    42  H    8.085273   7.471366   6.075133   5.839784   5.543378
                   11         12         13         14         15
    11  C    0.000000
    12  C    8.230084   0.000000
    13  C    9.410410   1.393348   0.000000
    14  C    9.534291   2.427796   1.401600   0.000000
    15  C    8.526141   2.836292   2.436851   1.392977   0.000000
    16  C    2.442096   8.603137   9.935870  10.385308   9.628542
    17  C    2.785055   9.935865  11.250079  11.632834  10.802164
    18  C    2.396320  10.385298  11.632829  11.855025  10.893582
    19  C    1.399185   9.628524  10.802152  10.893574   9.846946
    20  C    6.517884   4.941047   5.204586   4.417189   3.030407
    21  C    6.903488   5.683578   5.864737   5.009434   3.687493
    22  C    2.512658   8.222594   9.145246   8.897545   7.666165
    23  C    3.365489   8.743458   9.583497   9.234225   7.958815
    24  H    4.017714   5.965665   6.733489   6.370754   5.110745
    25  H    8.367742   1.085151   2.162906   3.416537   3.921435
    26  H   10.358237   2.146895   1.085074   2.157930   3.413551
    27  H   10.558693   3.405724   2.155324   1.085272   2.141127
    28  H    8.897671   3.920176   3.415669   2.151966   1.084064
    29  H    3.426553   8.428756   9.798884  10.386563   9.759697
    30  H    3.870059  10.733062  12.074524  12.531079  11.755201
    31  H    3.379809  11.462660  12.701685  12.896134  11.905540
    32  H    2.173594  10.219748  11.322408  11.290204  10.159742
    33  H    5.935898   5.660808   6.050647   5.341777   3.976918
    34  H    7.481040   4.978366   4.983973   4.002572   2.648775
    35  H    7.671044   5.321844   5.333867   4.426746   3.241473
    36  H    6.147627   5.974083   6.356205   5.684284   4.410849
    37  H    7.471359   6.664239   6.735734   5.748555   4.426150
    38  H    3.321245   7.782975   8.609767   8.266066   7.002201
    39  H    2.601337   9.124908  10.075693   9.852485   8.630730
    40  H    3.197445   9.354794  10.267808  10.008339   8.779003
    41  H    3.815945   8.029245   8.809574   8.424713   7.156640
    42  H    4.294941   9.472296  10.216732   9.742460   8.412584
                   16         17         18         19         20
    16  C    0.000000
    17  C    1.393347   0.000000
    18  C    2.427797   1.401600   0.000000
    19  C    2.836294   2.436852   1.392980   0.000000
    20  C    8.222629   9.145271   8.897560   7.666168   0.000000
    21  C    8.743332   9.583372   9.234118   7.958721   1.529608
    22  C    4.941043   5.204578   4.417184   3.030400   5.046983
    23  C    5.683698   5.864816   5.009454   3.687470   5.193995
    24  H    5.965658   6.733475   6.370738   5.110725   2.565877
    25  H    8.428751   9.798875  10.386550   9.759676   5.871312
    26  H   10.733060  12.074519  12.531070  11.755185   6.273184
    27  H   11.462670  12.701690  12.896135  11.905534   5.096338
    28  H   10.219774  11.322429  11.290221  10.159752   2.779230
    29  H    1.085152   2.162908   3.416539   3.921438   8.670675
    30  H    2.146896   1.085075   2.157928   3.413552  10.195192
    31  H    3.405724   2.155324   1.085272   2.141130   9.801949
    32  H    3.920178   3.415672   2.151971   1.084064   7.742111
    33  H    7.783100   8.609877   8.266150   7.002262   1.092464
    34  H    9.125005  10.075775   9.852543   8.630766   1.091860
    35  H    9.354549  10.267572  10.008139   8.778830   2.177519
    36  H    8.029038   8.809365   8.424525   7.156470   2.183305
    37  H    9.472255  10.216694   9.742440   8.412575   2.159085
    38  H    5.660751   6.050606   5.341765   3.976921   4.325891
    39  H    4.978298   4.983916   4.002547   2.648771   6.015864
    40  H    5.322072   5.334024   4.426794   3.241453   6.129789
    41  H    5.974182   6.356247   5.684255   4.410775   4.452814
    42  H    6.664360   6.735838   5.748621   4.426177   5.489167
                   21         22         23         24         25
    21  C    0.000000
    22  C    5.193913   0.000000
    23  C    5.585674   1.529610   0.000000
    24  H    3.026071   2.565885   3.025950   0.000000
    25  H    6.609353   8.670632   9.254870   6.589529   0.000000
    26  H    6.895218  10.195163  10.644746   7.806872   2.487712
    27  H    5.577392   9.801939  10.086470   7.250476   4.307757
    28  H    3.283703   7.742124   7.932336   5.191576   5.005316
    29  H    9.254734   5.871307   6.609501   6.589525   8.122147
    30  H   10.644616   6.273177   6.895302   7.806859  10.515184
    31  H   10.086367   5.096333   5.577380   7.250458  11.471153
    32  H    7.932254   2.779221   3.283590   5.191548  10.443979
    33  H    2.185491   4.325948   4.247094   2.027853   6.517654
    34  H    2.176222   6.015886   5.988831   3.570254   5.985241
    35  H    1.094113   6.129650   6.625840   3.918858   6.274333
    36  H    1.094570   4.452644   5.085994   2.569067   6.790786
    37  H    1.094644   5.489173   5.696058   3.591769   7.624390
    38  H    4.246971   1.092463   2.185488   2.027948   8.317534
    39  H    5.988713   1.091862   2.176225   3.570306   9.528722
    40  H    6.625870   2.177525   1.094111   3.918754   9.782302
    41  H    5.086108   2.183307   1.094571   2.568888   8.587198
    42  H    5.695973   2.159083   1.094644   3.591621  10.057959
                   26         27         28         29         30
    26  H    0.000000
    27  H    2.478200   0.000000
    28  H    4.301995   2.463242   0.000000
    29  H   10.515186  11.471167  10.444008   0.000000
    30  H   12.854844  13.607578  12.314252   2.487716   0.000000
    31  H   13.607568  13.929362  12.263982   4.307759   2.478198
    32  H   12.314228  12.263968  10.363525   5.005319   4.301998
    33  H    7.124239   6.041467   3.745011   8.317675   9.671337
    34  H    6.002323   4.521986   2.137051   9.528837  11.115644
    35  H    6.301165   4.904043   2.825306   9.782035  11.306845
    36  H    7.392862   6.352880   4.195881   8.586982   9.866765
    37  H    7.745710   6.181805   3.801010  10.057907  11.293000
    38  H    9.671220   9.127333   7.008812   6.517584   7.124196
    39  H   11.115553  10.757831   8.701080   5.985162   6.002265
    40  H   11.307092  10.890499   8.815526   6.274605   6.301327
    41  H    9.866980   9.256102   7.121617   6.790924   7.392911
    42  H   11.293041  10.528213   8.253714   7.624530   7.745823
                   31         32         33         34         35
    31  H    0.000000
    32  H    2.463249   0.000000
    33  H    9.127407   7.008842   0.000000
    34  H   10.757881   8.701087   1.744183   0.000000
    35  H   10.890308   8.815382   3.093168   2.531896   0.000000
    36  H    9.255920   7.121466   2.555958   3.090809   1.771017
    37  H   10.528198   8.253716   2.512679   2.505613   1.772575
    38  H    6.041469   3.745044   3.727385   5.336285   5.164704
    39  H    4.521977   2.137102   5.336332   7.006696   6.890247
    40  H    4.904025   2.825113   5.164880   6.890434   7.654049
    41  H    6.352813   4.195720   3.440932   5.149200   6.128509
    42  H    6.181853   3.800974   4.530541   6.231439   6.766996
                   36         37         38         39         40
    36  H    0.000000
    37  H    1.774520   0.000000
    38  H    3.440733   4.530506   0.000000
    39  H    5.148993   6.231413   1.744194   0.000000
    40  H    6.128415   6.767101   3.093167   2.531875   0.000000
    41  H    4.770233   5.222298   2.555982   3.090813   1.771010
    42  H    5.222098   5.603399   2.512646   2.505644   1.772575
                   41         42
    41  H    0.000000
    42  H    1.774522   0.000000
 Stoichiometry    C19H19N2S2(1+)
 Framework group  C1[X(C19H19N2S2)]
 Deg. of freedom   120
 Full point group                 C1      NOp   1
 Largest Abelian subgroup         C1      NOp   1
 Largest concise Abelian subgroup C1      NOp   1
                         Standard orientation:                         
 ---------------------------------------------------------------------
 Center     Atomic      Atomic             Coordinates (Angstroms)
 Number     Number       Type             X           Y           Z
 ---------------------------------------------------------------------
      1          6           0       -1.259214    0.216698   -0.039367
      2          6           0        0.000003    0.828935   -0.000122
      3          6           0        1.259209    0.216684    0.039249
      4          7           0        2.433464    0.904848    0.145998
      5         16           0       -1.557561   -1.512152    0.053882
      6          6           0       -3.297665   -1.258824   -0.027283
      7          6           0       -3.589904    0.108866   -0.118299
      8          7           0       -2.433474    0.904863   -0.146106
      9         16           0        1.557549   -1.512171   -0.053923
     10          6           0        3.297657   -1.258850    0.027304
     11          6           0        3.589900    0.108842    0.118251
     12          6           0       -4.301571   -2.224422   -0.003624
     13          6           0       -5.624645   -1.792125   -0.066975
     14          6           0       -5.925643   -0.425687   -0.149009
     15          6           0       -4.920394    0.538274   -0.174272
     16          6           0        4.301563   -2.224450    0.003718
     17          6           0        5.624635   -1.792149    0.067066
     18          6           0        5.925635   -0.425707    0.149021
     19          6           0        4.920384    0.538258    0.174213
     20          6           0       -2.510348    2.373529   -0.257226
     21          6           0       -2.566433    3.073786    1.101522
     22          6           0        2.510339    2.373497    0.257299
     23          6           0        2.566508    3.073929   -1.101357
     24          1           0        0.000014    1.909040   -0.000214
     25          1           0       -4.060576   -3.280313    0.063971
     26          1           0       -6.427238   -2.522132   -0.049094
     27          1           0       -6.962056   -0.106514   -0.191342
     28          1           0       -5.176748    1.590213   -0.228130
     29          1           0        4.060566   -3.280345   -0.063815
     30          1           0        6.427230   -2.522156    0.049231
     31          1           0        6.962048   -0.106532    0.191339
     32          1           0        5.176733    1.590201    0.228019
     33          1           0       -1.657488    2.708489   -0.852128
     34          1           0       -3.398115    2.597174   -0.852215
     35          1           0       -3.441185    2.752064    1.674572
     36          1           0       -1.673838    2.863356    1.699082
     37          1           0       -2.634230    4.156364    0.954302
     38          1           0        1.657436    2.708379    0.852183
     39          1           0        3.398074    2.597059    0.852370
     40          1           0        3.441334    2.752344   -1.674368
     41          1           0        1.673988    2.863510   -1.699033
     42          1           0        2.634214    4.156493   -0.953990
 ---------------------------------------------------------------------
 Rotational constants (GHZ):           0.5197631           0.1187459           0.0985340
 Standard basis: 6-311+G(2d,p) (5D, 7F)
 There are   797 symmetry adapted cartesian basis functions of A   symmetry.
 There are   751 symmetry adapted basis functions of A   symmetry.
   751 basis functions,  1146 primitive gaussians,   797 cartesian basis functions
    89 alpha electrons       89 beta electrons
       nuclear repulsion energy      2127.8579715027 Hartrees.
 NAtoms=   42 NActive=   42 NUniq=   42 SFac= 1.00D+00 NAtFMM=   60 NAOKFM=F Big=F
 Integral buffers will be    131072 words long.
 Regular integral format.
 Two-electron integral symmetry is turned on.
 ------------------------------------------------------------------------------
 Polarizable Continuum Model (PCM)
 =================================
 Model                : PCM.
 Atomic radii         : SMD-Coulomb.
 Polarization charges : Total charges.
 Charge compensation  : None.
 Solution method      : On-the-fly selection.
 Cavity type          : VdW (van der Waals Surface) (Alpha=1.000).
 Cavity algorithm     : GePol (No added spheres)
                        Default sphere list used, NSphG=   42.
                        Lebedev-Laikov grids with approx.  5.0 points / Ang**2.
                        Smoothing algorithm: York/Karplus (Gamma=1.0000).
                        Polarization charges: spherical gaussians, with
                                              point-specific exponents (IZeta= 3).
                        Self-potential: point-specific (ISelfS= 7).
                        Self-field    : sphere-specific E.n sum rule (ISelfD= 2).
 Solvent              : Ethanol, Eps=  24.852000 Eps(inf)=   1.852593
 ------------------------------------------------------------------------------
 ------------------------------------------------------------------------------
 Atomic radii for non-electrostatic terms: SMD-CDS.
 ------------------------------------------------------------------------------
 Nuclear repulsion after PCM non-electrostatic terms =     2127.8526197948 Hartrees.
 One-electron integrals computed using PRISM.
 NBasis=   751 RedAO= T EigKep=  1.86D-06  NBF=   751
 NBsUse=   745 1.00D-06 EigRej=  9.51D-07 NBFU=   745
 ExpMin= 4.05D-02 ExpMax= 9.34D+04 ExpMxC= 3.17D+03 IAcc=3 IRadAn=         5 AccDes= 0.00D+00
 Harris functional with IExCor=  402 and IRadAn=       5 diagonalized for initial guess.
 HarFok:  IExCor=  402 AccDes= 0.00D+00 IRadAn=         5 IDoV= 1 UseB2=F ITyADJ=14
 ICtDFT=  3500011 ScaDFX=  1.000000  1.000000  1.000000  1.000000
 FoFCou: FMM=F IPFlag=           0 FMFlag=      100000 FMFlg1=           0
         NFxFlg=           0 DoJE=T BraDBF=F KetDBF=T FulRan=T
         wScrn=  0.000000 ICntrl=       500 IOpCl=  0 I1Cent=   200000004 NGrid=           0
         NMat0=    1 NMatS0=      1 NMatT0=    0 NMatD0=    1 NMtDS0=    0 NMtDT0=    0
 Petite list used in FoFCou.
 Requested convergence on RMS density matrix=1.00D-08 within 128 cycles.
 Requested convergence on MAX density matrix=1.00D-06.
 Requested convergence on             energy=1.00D-06.
 No special actions if energy rises.
 Inv3:  Mode=1 IEnd=    30470907.
 Iteration    1 A*A^-1 deviation from unit magnitude is 3.11D-15 for   2918.
 Iteration    1 A*A^-1 deviation from orthogonality  is 2.11D-15 for   1979     64.
 Iteration    1 A^-1*A deviation from unit magnitude is 3.11D-15 for   3036.
 Iteration    1 A^-1*A deviation from orthogonality  is 4.99D-09 for   2629   2551.
 Iteration    2 A*A^-1 deviation from unit magnitude is 2.44D-15 for    703.
 Iteration    2 A*A^-1 deviation from orthogonality  is 3.94D-15 for   1512    703.
 Iteration    2 A^-1*A deviation from unit magnitude is 2.00D-15 for   1246.
 Iteration    2 A^-1*A deviation from orthogonality  is 2.06D-15 for    936      2.
 Error on total polarization charges =  0.06242
 SCF Done:  E(RB3LYP) =  -1641.53253972     A.U. after   13 cycles
            NFock= 13  Conv=0.57D-08     -V/T= 2.0032
 SMD-CDS (non-electrostatic) energy       (kcal/mol) =      -3.36
 (included in total energy above)
 DoSCS=F DFT=T ScalE2(SS,OS)=  1.000000  1.000000
 ExpMin= 4.05D-02 ExpMax= 9.34D+04 ExpMxC= 3.17D+03 IAcc=3 IRadAn=         5 AccDes= 0.00D+00
 HarFok:  IExCor=  205 AccDes= 0.00D+00 IRadAn=         5 IDoV=-2 UseB2=F ITyADJ=14
 ICtDFT= 12500011 ScaDFX=  1.000000  1.000000  1.000000  1.000000
 GSVD:  LWork=       -1209 too small for GESVD, short by        5270 words or        5270 for optimal perf.
 Range of M.O.s used for correlation:    32   745
 NBasis=   751 NAE=    89 NBE=    89 NFC=    31 NFV=     0
 NROrb=    714 NOA=    58 NOB=    58 NVA=   656 NVB=   656

 **** Warning!!: The largest alpha MO coefficient is  0.90843346D+02

 NEqPCM:  Using non-equilibrium solvation (IEInf=1, Eps=  24.8520, EpsInf=   1.8526)
 Inv3:  Mode=1 IEnd=    30470907.
 Iteration    1 A*A^-1 deviation from unit magnitude is 3.77D-15 for    249.
 Iteration    1 A*A^-1 deviation from orthogonality  is 2.44D-15 for   2220    596.
 Iteration    1 A^-1*A deviation from unit magnitude is 3.66D-15 for   1790.
 Iteration    1 A^-1*A deviation from orthogonality  is 3.09D-15 for   1067    948.
 Orbital symmetries:
       Occupied  (A) (A) (A) (A) (A) (A) (A) (A) (A) (A) (A) (A)
                 (A) (A) (A) (A) (A) (A) (A) (A) (A) (A) (A) (A)
                 (A) (A) (A) (A) (A) (A) (A) (A) (A) (A) (A) (A)
                 (A) (A) (A) (A) (A) (A) (A) (A) (A) (A) (A) (A)
                 (A) (A) (A) (A) (A) (A) (A) (A) (A) (A) (A) (A)
                 (A) (A) (A) (A) (A) (A) (A) (A) (A) (A) (A) (A)
                 (A) (A) (A) (A) (A) (A) (A) (A) (A) (A) (A) (A)
                 (A) (A) (A) (A) (A)
       Virtual   (A) (A) (A) (A) (A) (A) (A) (A) (A) (A) (A) (A)
                 (A) (A) (A) (A) (A) (A) (A) (A) (A) (A) (A) (A)
                 (A) (A) (A) (A) (A) (A) (A) (A) (A) (A) (A) (A)
                 (A) (A) (A) (A) (A) (A) (A) (A) (A) (A) (A) (A)
                 (A) (A) (A) (A) (A) (A) (A) (A) (A) (A) (A) (A)
                 (A) (A) (A) (A) (A) (A) (A) (A) (A) (A) (A) (A)
                 (A) (A) (A) (A) (A) (A) (A) (A) (A) (A) (A) (A)
                 (A) (A) (A) (A) (A) (A) (A) (A) (A) (A) (A) (A)
                 (A) (A) (A) (A) (A) (A) (A) (A) (A) (A) (A) (A)
                 (A) (A) (A) (A) (A) (A) (A) (A) (A) (A) (A) (A)
                 (A) (A) (A) (A) (A) (A) (A) (A) (A) (A) (A) (A)
                 (A) (A) (A) (A) (A) (A) (A) (A) (A) (A) (A) (A)
                 (A) (A) (A) (A) (A) (A) (A) (A) (A) (A) (A) (A)
                 (A) (A) (A) (A) (A) (A) (A) (A) (A) (A) (A) (A)
                 (A) (A) (A) (A) (A) (A) (A) (A) (A) (A) (A) (A)
                 (A) (A) (A) (A) (A) (A) (A) (A) (A) (A) (A) (A)
                 (A) (A) (A) (A) (A) (A) (A) (A) (A) (A) (A) (A)
                 (A) (A) (A) (A) (A) (A) (A) (A) (A) (A) (A) (A)
                 (A) (A) (A) (A) (A) (A) (A) (A) (A) (A) (A) (A)
                 (A) (A) (A) (A) (A) (A) (A) (A) (A) (A) (A) (A)
                 (A) (A) (A) (A) (A) (A) (A) (A) (A) (A) (A) (A)
                 (A) (A) (A) (A) (A) (A) (A) (A) (A) (A) (A) (A)
                 (A) (A) (A) (A) (A) (A) (A) (A) (A) (A) (A) (A)
                 (A) (A) (A) (A) (A) (A) (A) (A) (A) (A) (A) (A)
                 (A) (A) (A) (A) (A) (A) (A) (A) (A) (A) (A) (A)
                 (A) (A) (A) (A) (A) (A) (A) (A) (A) (A) (A) (A)
                 (A) (A) (A) (A) (A) (A) (A) (A) (A) (A) (A) (A)
                 (A) (A) (A) (A) (A) (A) (A) (A) (A) (A) (A) (A)
                 (A) (A) (A) (A) (A) (A) (A) (A) (A) (A) (A) (A)
                 (A) (A) (A) (A) (A) (A) (A) (A) (A) (A) (A) (A)
                 (A) (A) (A) (A) (A) (A) (A) (A) (A) (A) (A) (A)
                 (A) (A) (A) (A) (A) (A) (A) (A) (A) (A) (A) (A)
                 (A) (A) (A) (A) (A) (A) (A) (A) (A) (A) (A) (A)
                 (A) (A) (A) (A) (A) (A) (A) (A) (A) (A) (A) (A)
                 (A) (A) (A) (A) (A) (A) (A) (A) (A) (A) (A) (A)
                 (A) (A) (A) (A) (A) (A) (A) (A) (A) (A) (A) (A)
                 (A) (A) (A) (A) (A) (A) (A) (A) (A) (A) (A) (A)
                 (A) (A) (A) (A) (A) (A) (A) (A) (A) (A) (A) (A)
                 (A) (A) (A) (A) (A) (A) (A) (A) (A) (A) (A) (A)
                 (A) (A) (A) (A) (A) (A) (A) (A) (A) (A) (A) (A)
                 (A) (A) (A) (A) (A) (A) (A) (A) (A) (A) (A) (A)
                 (A) (A) (A) (A) (A) (A) (A) (A) (A) (A) (A) (A)
                 (A) (A) (A) (A) (A) (A) (A) (A) (A) (A) (A) (A)
                 (A) (A) (A) (A) (A) (A) (A) (A) (A) (A) (A) (A)
                 (A) (A) (A) (A) (A) (A) (A) (A) (A) (A) (A) (A)
                 (A) (A) (A) (A) (A) (A) (A) (A) (A) (A) (A) (A)
                 (A) (A) (A) (A) (A) (A) (A) (A) (A) (A) (A) (A)
                 (A) (A) (A) (A) (A) (A) (A) (A) (A) (A) (A) (A)
                 (A) (A) (A) (A) (A) (A) (A) (A) (A) (A) (A) (A)
                 (A) (A) (A) (A) (A) (A) (A) (A) (A) (A) (A) (A)
                 (A) (A) (A) (A) (A) (A) (A) (A) (A) (A) (A) (A)
                 (A) (A) (A) (A) (A) (A) (A) (A) (A) (A) (A) (A)
                 (A) (A) (A) (A) (A) (A) (A) (A) (A) (A) (A) (A)
                 (A) (A) (A) (A) (A) (A) (A) (A) (A) (A) (A) (A)
                 (A) (A) (A) (A) (A) (A) (A) (A)
   600 initial guesses have been made.
 Convergence on wavefunction:    0.001000000000000
 Iteration     1 Dimension   600 NMult     0 NNew    600
 CISAX will form   320 AO SS matrices at one time.
 New state      6 was old state      7
 New state      7 was old state      6
 New state      9 was old state     11
 New state     10 was old state      9
 New state     11 was old state     12
 New state     12 was old state     10
 New state     14 was old state     15
 New state     15 was old state     18
 New state     17 was old state     20
 New state     18 was old state     21
 New state     19 was old state     14
 New state     20 was old state     17
 New state     21 was old state     24
 New state     22 was old state     23
 New state     23 was old state     19
 New state     24 was old state     27
 New state     25 was old state     30
 New state     26 was old state     22
 New state     27 was old state     29
 New state     28 was old state     33
 New state     29 was old state     25
 New state     30 was old state     31
 New state     31 was old state     40
 New state     32 was old state     41
 New state     33 was old state     35
 New state     34 was old state     45
 New state     35 was old state     37
 New state     36 was old state     38
 New state     37 was old state     53
 New state     38 was old state     46
 New state     39 was old state     42
 New state     40 was old state     44
 New state     41 was old state     34
 New state     42 was old state     51
 New state     43 was old state     50
 New state     44 was old state     43
 New state     45 was old state     48
 New state     46 was old state     47
 New state     47 was old state     49
 New state     48 was old state     70
 New state     49 was old state     57
 New state     50 was old state     54
 New state     51 was old state     39
 New state     52 was old state     58
 New state     53 was old state     52
 New state     54 was old state     66
 New state     55 was old state     59
 New state     56 was old state     64
 New state     57 was old state     77
 New state     58 was old state     62
 New state     59 was old state     65
 New state     60 was old state     56
 New state     61 was old state     55
 New state     62 was old state     60
 New state     63 was old state     74
 New state     64 was old state     71
 New state     65 was old state     92
 New state     66 was old state     68
 New state     67 was old state     79
 New state     68 was old state     63
 New state     69 was old state     61
 New state     70 was old state     67
 New state     71 was old state     72
 New state     72 was old state     69
 New state     73 was old state     76
 New state     74 was old state    105
 New state     75 was old state     73
 New state     76 was old state     87
 New state     77 was old state     75
 New state     78 was old state     83
 New state     79 was old state     78
 New state     80 was old state     81
 New state     81 was old state     85
 New state     83 was old state    101
 New state     85 was old state     99
 New state     86 was old state     88
 New state     87 was old state     80
 New state     88 was old state     93
 New state     89 was old state     90
 New state     90 was old state     89
 New state     91 was old state     98
 New state     92 was old state    123
 New state     93 was old state     95
 New state     94 was old state     96
 New state     95 was old state    103
 New state     96 was old state     86
 New state     97 was old state     94
 New state     98 was old state     91
 New state     99 was old state     97
 New state    100 was old state    112
 New state    101 was old state    102
 New state    102 was old state    120
 New state    103 was old state    100
 New state    104 was old state    107
 New state    105 was old state    114
 New state    107 was old state    109
 New state    108 was old state    134
 New state    109 was old state    111
 New state    110 was old state    108
 New state    111 was old state    116
 New state    112 was old state    113
 New state    113 was old state    104
 New state    114 was old state    124
 New state    115 was old state    149
 New state    116 was old state    118
 New state    117 was old state    115
 New state    118 was old state    117
 New state    119 was old state    128
 New state    120 was old state    121
 New state    121 was old state    137
 New state    122 was old state    131
 New state    123 was old state    138
 New state    124 was old state    122
 New state    125 was old state    126
 New state    126 was old state    132
 New state    127 was old state    141
 New state    128 was old state    140
 New state    129 was old state    133
 New state    130 was old state    125
 New state    131 was old state    110
 New state    132 was old state    130
 New state    133 was old state    127
 New state    134 was old state    153
 New state    135 was old state    145
 New state    136 was old state    147
 New state    137 was old state    129
 New state    138 was old state    173
 New state    139 was old state    168
 New state    140 was old state    135
 New state    141 was old state    143
 New state    142 was old state    136
 New state    143 was old state    146
 New state    144 was old state    139
 New state    145 was old state    163
 New state    146 was old state    197
 New state    147 was old state    142
 New state    148 was old state    155
 New state    149 was old state    152
 New state    150 was old state    169
 Iteration     2 Dimension   900 NMult   600 NNew    300
 New state      9 was old state     10
 New state     10 was old state      9
 New state     17 was old state     18
 New state     18 was old state     17
 New state     20 was old state     23
 New state     21 was old state     22
 New state     22 was old state     24
 New state     23 was old state     21
 New state     24 was old state     20
 New state     25 was old state     26
 New state     26 was old state     25
 New state     27 was old state     38
 New state     28 was old state     27
 New state     29 was old state     34
 New state     30 was old state     29
 New state     31 was old state     28
 New state     32 was old state     30
 New state     34 was old state     31
 New state     35 was old state     32
 New state     36 was old state     41
 New state     37 was old state     35
 New state     38 was old state     43
 New state     39 was old state     37
 New state     40 was old state     36
 New state     41 was old state     39
 New state     42 was old state     47
 New state     43 was old state     40
 New state     44 was old state     42
 New state     45 was old state     51
 New state     46 was old state     44
 New state     47 was old state     45
 New state     48 was old state     46
 New state     50 was old state     48
 New state     51 was old state     50
 New state     54 was old state     56
 New state     55 was old state     54
 New state     56 was old state     55
 New state     60 was old state     61
 New state     61 was old state     66
 New state     62 was old state     60
 New state     63 was old state     62
 New state     64 was old state     65
 New state     65 was old state     67
 New state     66 was old state     63
 New state     67 was old state     64
 New state     70 was old state     72
 New state     71 was old state     70
 New state     72 was old state     74
 New state     73 was old state     71
 New state     74 was old state     73
 New state     76 was old state     83
 New state     77 was old state     76
 New state     78 was old state     85
 New state     79 was old state     84
 New state     80 was old state     77
 New state     81 was old state     78
 New state     82 was old state     79
 New state     83 was old state     80
 New state     84 was old state     82
 New state     85 was old state     81
 New state     86 was old state     92
 New state     87 was old state     90
 New state     88 was old state     86
 New state     89 was old state     88
 New state     90 was old state     87
 New state     91 was old state     89
 New state     92 was old state     93
 New state     93 was old state     99
 New state     94 was old state     96
 New state     95 was old state     91
 New state     96 was old state     94
 New state     97 was old state     95
 New state     98 was old state    100
 New state     99 was old state    110
 New state    100 was old state     98
 New state    101 was old state     97
 New state    102 was old state    101
 New state    103 was old state    102
 New state    104 was old state    103
 New state    105 was old state    104
 New state    107 was old state    105
 New state    108 was old state    114
 New state    109 was old state    108
 New state    110 was old state    107
 New state    111 was old state    109
 New state    112 was old state    123
 New state    113 was old state    115
 New state    114 was old state    125
 New state    115 was old state    111
 New state    117 was old state    112
 New state    118 was old state    113
 New state    119 was old state    136
 New state    120 was old state    117
 New state    121 was old state    119
 New state    122 was old state    118
 New state    123 was old state    120
 New state    124 was old state    121
 New state    125 was old state    129
 New state    126 was old state    122
 No map to state    127
 New state    128 was old state    124
 New state    129 was old state    126
 New state    130 was old state    127
 New state    131 was old state    130
 New state    132 was old state    128
 New state    133 was old state    131
 New state    135 was old state    132
 New state    136 was old state    133
 New state    138 was old state    140
 New state    139 was old state    138
 New state    140 was old state    135
 New state    141 was old state    143
 New state    143 was old state    141
 New state    144 was old state    149
 New state    145 was old state    146
 New state    146 was old state    145
 New state    147 was old state    148
 New state    148 was old state    144
 New state    149 was old state    147
 Iteration     3 Dimension  1200 NMult   900 NNew    300
 Iteration     4 Dimension  1476 NMult  1200 NNew    276
 New state     37 was old state     38
 New state     38 was old state     37
 Iteration     5 Dimension  1544 NMult  1476 NNew     68
 Iteration     6 Dimension  1548 NMult  1544 NNew      4
 Convergence on energies, max DE= 7.19D-07.
 ***********************************************************************
 Excited states from <AA,BB:AA,BB> singles matrix:
 ***********************************************************************
 
 Ground to excited state transition densities written to RWF  633
 Ground to excited state transition electric dipole moments (Au):
       state          X           Y           Z        Dip. S.      Osc.
         1         3.9622      0.0000      0.0339     15.6998      1.2076
         2        -0.0663      0.0000     -0.0584      0.0078      0.0007
         3         0.0000     -0.4101     -0.0000      0.1682      0.0167
         4         0.2222      0.0000      0.0156      0.0496      0.0051
         5         0.0000     -0.6575      0.0000      0.4324      0.0459
         6        -0.6052      0.0000     -0.0544      0.3692      0.0404
         7         0.0000     -0.0490      0.0000      0.0024      0.0003
         8         0.0000     -0.8558      0.0000      0.7324      0.0848
         9         0.1189     -0.0000      0.0317      0.0151      0.0018
        10        -0.0000     -0.0253      0.0000      0.0006      0.0001
        11         0.0001      0.0214     -0.0000      0.0005      0.0001
        12         0.1965     -0.0000     -0.0262      0.0393      0.0049
        13         0.2451      0.0000     -0.0092      0.0602      0.0075
        14         1.4342     -0.0000      0.0057      2.0570      0.2667
        15         0.0001     -0.0481     -0.0000      0.0023      0.0003
        16         0.0001     -0.0002     -0.0000      0.0000      0.0000
        17         0.0065      0.2038     -0.0016      0.0416      0.0056
        18         0.6541     -0.0022     -0.1555      0.4520      0.0612
        19        -0.8356      0.0000     -0.0451      0.7003      0.0959
        20        -0.0000     -1.1696      0.0001      1.3681      0.1880
        21         0.1655      0.0006      0.1130      0.0401      0.0055
        22         0.0000      0.6138     -0.0000      0.3768      0.0526
        23         0.0655     -0.0001     -0.0937      0.0131      0.0018
        24         0.0001     -0.0846      0.0000      0.0072      0.0010
        25        -0.0388      0.0000      0.0425      0.0033      0.0005
        26         0.0945      0.0001     -0.2387      0.0659      0.0095
        27         0.0002      0.0076      0.0000      0.0001      0.0000
        28         0.0159     -0.0762      0.0001      0.0061      0.0009
        29         1.4095      0.0008      0.0111      1.9868      0.2918
        30        -1.4664     -0.0000     -0.1217      2.1651      0.3210
        31         0.0007     -0.0238      0.0001      0.0006      0.0001
        32        -0.0001     -0.1766     -0.0000      0.0312      0.0047
        33        -0.0001      0.2943     -0.0001      0.0866      0.0131
        34        -0.0012     -0.0594     -0.0000      0.0035      0.0005
        35        -0.7442      0.0000      0.0067      0.5539      0.0843
        36         0.3811      0.0001      0.1797      0.1775      0.0272
        37        -0.0157     -0.0878     -0.0034      0.0080      0.0012
        38         0.2773     -0.0049      0.0604      0.0806      0.0124
        39         0.1471     -0.0000     -0.1229      0.0368      0.0057
        40        -0.3687      0.0000      0.1364      0.1545      0.0239
        41         0.2088     -0.0000     -0.1854      0.0779      0.0121
        42         1.3429     -0.0000      0.1243      1.8187      0.2854
        43         0.0002      0.0636      0.0000      0.0040      0.0006
        44         0.0505     -0.0002      0.1102      0.0147      0.0023
        45         0.0000      0.9955      0.0000      0.9911      0.1572
        46         0.0000     -0.0309      0.0000      0.0010      0.0002
        47         0.0001      0.2355      0.0001      0.0554      0.0089
        48        -0.0288      0.0008     -0.0232      0.0014      0.0002
        49        -0.0000      0.0000      0.0000      0.0000      0.0000
        50        -0.0000      0.0603      0.0000      0.0036      0.0006
        51         0.0635     -0.0001     -0.0696      0.0089      0.0014
        52        -0.0962     -0.0001      0.1244      0.0247      0.0040
        53         0.0000      0.1234      0.0000      0.0152      0.0025
        54        -0.1364     -0.0000     -0.0566      0.0218      0.0036
        55        -0.0000      0.1233     -0.0000      0.0152      0.0025
        56        -0.0000     -0.1017      0.0000      0.0103      0.0017
        57         0.2911     -0.0001      0.1680      0.1129      0.0188
        58        -0.1334      0.0002      0.0350      0.0190      0.0032
        59        -0.1335     -0.0005     -0.0193      0.0182      0.0030
        60        -0.0000     -0.4157     -0.0000      0.1728      0.0289
        61         0.0001      0.0203      0.0001      0.0004      0.0001
        62         0.2048     -0.0000      0.2430      0.1010      0.0169
        63         0.1098      0.0002     -0.0534      0.0149      0.0025
        64        -0.0011      0.2187     -0.0000      0.0478      0.0081
        65         1.0939      0.0002      0.0591      1.2001      0.2036
        66        -0.0001     -0.0617     -0.0000      0.0038      0.0006
        67        -0.2141     -0.0000      0.2447      0.1057      0.0180
        68         0.0000      0.0275     -0.0000      0.0008      0.0001
        69        -0.0000      0.1695     -0.0000      0.0287      0.0049
        70         0.0000     -0.1161     -0.0000      0.0135      0.0023
        71        -0.1007     -0.0001     -0.1000      0.0201      0.0035
        72        -0.2804      0.0002     -0.1995      0.1184      0.0204
        73        -0.3006     -0.0004      0.0630      0.0943      0.0163
        74         0.0003     -0.2048     -0.0003      0.0419      0.0073
        75         0.0003     -0.0276      0.0001      0.0008      0.0001
        76         0.0002     -0.2606      0.0000      0.0679      0.0118
        77        -0.2394      0.0014     -0.0469      0.0595      0.0104
        78        -0.0009     -0.2922     -0.0002      0.0854      0.0149
        79        -0.6060     -0.0001     -0.1082      0.3789      0.0663
        80         0.2736     -0.0000     -0.0707      0.0799      0.0140
        81        -0.2607     -0.0000      0.2633      0.1373      0.0241
        82         0.0001      0.0151     -0.0000      0.0002      0.0000
        83        -0.0223      0.0002      0.0406      0.0021      0.0004
        84        -0.0000      0.1023      0.0000      0.0105      0.0018
        85         0.0000     -0.1526     -0.0000      0.0233      0.0041
        86        -0.2042     -0.0000     -0.1430      0.0622      0.0111
        87        -0.0001      0.3266     -0.0000      0.1067      0.0190
        88         0.1318     -0.0001     -0.0929      0.0260      0.0047
        89         0.0001      0.3748     -0.0000      0.1405      0.0252
        90        -0.0219      0.0002     -0.0726      0.0057      0.0010
        91        -0.0001     -1.0579     -0.0000      1.1191      0.2016
        92         0.0000      0.6513     -0.0000      0.4242      0.0766
        93        -0.0001      1.2275      0.0000      1.5067      0.2728
        94         0.0450      0.0028     -0.0377      0.0034      0.0006
        95         0.0000     -0.1360     -0.0000      0.0185      0.0034
        96         0.3528      0.0000     -0.1529      0.1479      0.0270
        97        -0.0796     -0.0000     -0.0451      0.0084      0.0015
        98         0.9332      0.0000     -0.0884      0.8787      0.1611
        99         0.8598      0.0003      0.1516      0.7622      0.1400
       100        -0.0024      0.1003     -0.0003      0.0101      0.0018
       101         0.0003     -0.3085      0.0001      0.0951      0.0175
       102        -0.3169      0.0001      0.1019      0.1108      0.0204
       103        -0.0001     -0.1013      0.0001      0.0103      0.0019
       104         0.0176     -0.0001     -0.2316      0.0540      0.0100
       105        -0.3653     -0.0000      0.0881      0.1412      0.0262
       106        -0.1165      0.0009     -0.0954      0.0227      0.0042
       107         0.0003      0.4496      0.0002      0.2021      0.0376
       108        -0.0000      0.0878     -0.0001      0.0077      0.0014
       109         0.0001     -0.1974     -0.0000      0.0390      0.0073
       110         0.3576     -0.0000     -0.1331      0.1456      0.0272
       111         0.0001      0.2610      0.0000      0.0681      0.0128
       112         0.2262     -0.0001      0.0985      0.0609      0.0114
       113         0.1585      0.0000      0.1430      0.0456      0.0086
       114         0.0178     -0.0001     -0.0520      0.0030      0.0006
       115         0.0001     -0.5287      0.0000      0.2795      0.0526
       116        -0.0001      0.3594      0.0000      0.1292      0.0244
       117         0.1244      0.0003     -0.0165      0.0157      0.0030
       118        -0.0794      0.0000     -0.0398      0.0079      0.0015
       119         0.0002     -0.1121     -0.0001      0.0126      0.0024
       120        -0.0591     -0.0002      0.0751      0.0091      0.0017
       121        -0.2312      0.0000      0.0306      0.0544      0.0103
       122         0.0000     -0.0317     -0.0000      0.0010      0.0002
       123         0.0000      0.2003      0.0000      0.0401      0.0077
       124         0.0002     -0.1973     -0.0000      0.0389      0.0075
       125        -0.5884     -0.0001      0.0300      0.3472      0.0665
       126         0.0001     -0.0756     -0.0000      0.0057      0.0011
       127         0.0002      0.1217     -0.0000      0.0148      0.0028
       128        -0.0001      0.3013      0.0001      0.0908      0.0176
       129        -0.0912     -0.0001      0.0207      0.0087      0.0017
       130         0.0000      0.2133     -0.0000      0.0455      0.0088
       131         0.0404      0.0001      0.1604      0.0274      0.0053
       132        -0.0000     -0.0122      0.0001      0.0001      0.0000
       133        -0.0742     -0.0001      0.1223      0.0205      0.0040
       134        -0.0382     -0.0001      0.1152      0.0147      0.0029
       135        -0.0001      0.0418      0.0002      0.0017      0.0003
       136         0.0095     -0.0030     -0.1233      0.0153      0.0030
       137         0.0000      0.3130     -0.0012      0.0980      0.0192
       138         0.0165      0.0007     -0.1433      0.0208      0.0041
       139        -0.0000      0.2067      0.0005      0.0427      0.0084
       140         0.0001      0.1676     -0.0000      0.0281      0.0055
       141        -0.0661     -0.0001      0.0083      0.0044      0.0009
       142         0.0000      0.0764     -0.0000      0.0058      0.0011
       143         0.1740      0.0001     -0.1178      0.0441      0.0087
       144         0.2181     -0.0001     -0.2257      0.0985      0.0195
       145         0.3071      0.0002      0.2114      0.1390      0.0275
       146        -0.0003      0.2632     -0.0002      0.0693      0.0137
       147         0.0001      0.1214      0.0001      0.0147      0.0029
       148         0.0000     -0.1036      0.0000      0.0107      0.0021
       149        -0.0486      0.0032     -0.0406      0.0040      0.0008
       150        -0.0008     -0.1979     -0.0007      0.0391      0.0078
 Ground to excited state transition velocity dipole moments (Au):
       state          X           Y           Z        Dip. S.      Osc.
         1        -0.4571      0.0000     -0.0038      0.2089      1.2071
         2         0.0094     -0.0000      0.0090      0.0002      0.0008
         3         0.0000      0.0616     -0.0000      0.0038      0.0170
         4        -0.0341     -0.0000     -0.0023      0.0012      0.0050
         5        -0.0000      0.1082     -0.0000      0.0117      0.0490
         6         0.1010     -0.0000      0.0092      0.0103      0.0417
         7        -0.0000      0.0081     -0.0000      0.0001      0.0003
         8        -0.0000      0.1510     -0.0000      0.0228      0.0875
         9        -0.0225      0.0000     -0.0049      0.0005      0.0020
        10         0.0000      0.0045     -0.0000      0.0000      0.0001
        11        -0.0000     -0.0036      0.0000      0.0000      0.0000
        12        -0.0362      0.0000      0.0004      0.0013      0.0047
        13        -0.0460     -0.0000      0.0029      0.0021      0.0075
        14        -0.2802      0.0000     -0.0011      0.0785      0.2692
        15        -0.0000      0.0095      0.0000      0.0001      0.0003
        16        -0.0000      0.0008      0.0000      0.0000      0.0000
        17        -0.0013     -0.0397      0.0004      0.0016      0.0052
        18        -0.1327      0.0004      0.0337      0.0188      0.0616
        19         0.1698     -0.0000      0.0098      0.0289      0.0940
        20         0.0000      0.2433     -0.0000      0.0592      0.1915
        21        -0.0347     -0.0001     -0.0244      0.0018      0.0058
        22        -0.0000     -0.1301      0.0000      0.0169      0.0540
        23        -0.0143      0.0000      0.0209      0.0006      0.0020
        24        -0.0000      0.0186     -0.0000      0.0003      0.0011
        25         0.0070     -0.0000     -0.0090      0.0001      0.0004
        26        -0.0199     -0.0000      0.0485      0.0027      0.0085
        27        -0.0000     -0.0013     -0.0000      0.0000      0.0000
        28        -0.0035      0.0158     -0.0000      0.0003      0.0008
        29        -0.3111     -0.0002     -0.0022      0.0968      0.2929
        30         0.3255      0.0000      0.0271      0.1067      0.3198
        31        -0.0002      0.0059     -0.0000      0.0000      0.0001
        32         0.0000      0.0394      0.0000      0.0016      0.0046
        33         0.0000     -0.0700      0.0000      0.0049      0.0143
        34         0.0003      0.0149      0.0000      0.0002      0.0006
        35         0.1706     -0.0000     -0.0035      0.0291      0.0850
        36        -0.0874     -0.0000     -0.0438      0.0096      0.0277
        37         0.0036      0.0222      0.0009      0.0005      0.0015
        38        -0.0642      0.0012     -0.0162      0.0044      0.0127
        39        -0.0325      0.0000      0.0262      0.0017      0.0050
        40         0.0832     -0.0000     -0.0321      0.0080      0.0228
        41        -0.0509      0.0000      0.0465      0.0048      0.0136
        42        -0.3188      0.0000     -0.0310      0.1026      0.2905
        43        -0.0001     -0.0149     -0.0000      0.0002      0.0006
        44        -0.0124      0.0000     -0.0276      0.0009      0.0026
        45        -0.0000     -0.2379     -0.0000      0.0566      0.1585
        46        -0.0000      0.0076     -0.0000      0.0001      0.0002
        47        -0.0000     -0.0576     -0.0000      0.0033      0.0092
        48         0.0086     -0.0002      0.0041      0.0001      0.0003
        49         0.0000      0.0004     -0.0000      0.0000      0.0000
        50         0.0000     -0.0149     -0.0000      0.0002      0.0006
        51        -0.0161      0.0000      0.0182      0.0006      0.0016
        52         0.0237      0.0000     -0.0315      0.0016      0.0042
        53        -0.0000     -0.0297     -0.0000      0.0009      0.0024
        54         0.0319      0.0000      0.0143      0.0012      0.0033
        55         0.0000     -0.0309      0.0000      0.0010      0.0026
        56         0.0000      0.0259     -0.0000      0.0007      0.0018
        57        -0.0723      0.0000     -0.0392      0.0068      0.0180
        58         0.0318     -0.0000     -0.0061      0.0010      0.0028
        59         0.0339      0.0001      0.0013      0.0011      0.0031
        60        -0.0000      0.1060      0.0000      0.0112      0.0299
        61        -0.0000     -0.0038     -0.0000      0.0000      0.0000
        62        -0.0487      0.0000     -0.0606      0.0060      0.0160
        63        -0.0284     -0.0000      0.0114      0.0009      0.0025
        64         0.0003     -0.0542      0.0000      0.0029      0.0077
        65        -0.2806     -0.0001     -0.0144      0.0790      0.2068
        66         0.0000      0.0147      0.0000      0.0002      0.0006
        67         0.0548      0.0000     -0.0634      0.0070      0.0183
        68        -0.0000     -0.0050      0.0000      0.0000      0.0001
        69         0.0000     -0.0425      0.0000      0.0018      0.0047
        70        -0.0000      0.0306      0.0000      0.0009      0.0024
        71         0.0247      0.0000      0.0266      0.0013      0.0034
        72         0.0723     -0.0000      0.0528      0.0080      0.0206
        73         0.0758      0.0001     -0.0177      0.0061      0.0156
        74        -0.0001      0.0522      0.0001      0.0027      0.0070
        75        -0.0001      0.0070     -0.0000      0.0000      0.0001
        76        -0.0001      0.0666     -0.0000      0.0044      0.0113
        77         0.0630     -0.0004      0.0137      0.0042      0.0106
        78         0.0003      0.0760      0.0001      0.0058      0.0147
        79         0.1604      0.0000      0.0290      0.0266      0.0675
        80        -0.0731      0.0000      0.0207      0.0058      0.0146
        81         0.0694      0.0000     -0.0687      0.0095      0.0241
        82        -0.0000     -0.0042      0.0000      0.0000      0.0000
        83         0.0062     -0.0000     -0.0135      0.0002      0.0006
        84         0.0000     -0.0272     -0.0000      0.0007      0.0019
        85        -0.0000      0.0392      0.0000      0.0015      0.0038
        86         0.0548      0.0000      0.0391      0.0045      0.0113
        87         0.0000     -0.0873      0.0000      0.0076      0.0190
        88        -0.0363      0.0000      0.0252      0.0020      0.0048
        89        -0.0000     -0.1002      0.0000      0.0100      0.0248
        90         0.0056     -0.0000      0.0207      0.0005      0.0011
        91         0.0000      0.2830      0.0000      0.0801      0.1977
        92        -0.0000     -0.1744      0.0000      0.0304      0.0748
        93         0.0000     -0.3351     -0.0000      0.1123      0.2756
        94        -0.0127     -0.0008      0.0102      0.0003      0.0007
        95        -0.0000      0.0363      0.0000      0.0013      0.0032
        96        -0.0948     -0.0000      0.0419      0.0107      0.0261
        97         0.0216      0.0000      0.0112      0.0006      0.0014
        98        -0.2598     -0.0000      0.0241      0.0681      0.1650
        99        -0.2407     -0.0001     -0.0424      0.0597      0.1445
       100         0.0007     -0.0267      0.0001      0.0007      0.0017
       101        -0.0001      0.0848     -0.0000      0.0072      0.0174
       102         0.0910     -0.0000     -0.0296      0.0092      0.0221
       103         0.0000      0.0294     -0.0000      0.0009      0.0021
       104        -0.0059      0.0000      0.0649      0.0042      0.0102
       105         0.1032      0.0000     -0.0246      0.0112      0.0270
       106         0.0355     -0.0002      0.0269      0.0020      0.0047
       107        -0.0001     -0.1277     -0.0001      0.0163      0.0390
       108         0.0000     -0.0248      0.0000      0.0006      0.0015
       109        -0.0000      0.0550     -0.0000      0.0030      0.0072
       110        -0.1016     -0.0000      0.0366      0.0117      0.0278
       111        -0.0000     -0.0751      0.0000      0.0056      0.0134
       112        -0.0629      0.0000     -0.0271      0.0047      0.0111
       113        -0.0448     -0.0000     -0.0396      0.0036      0.0085
       114        -0.0040      0.0000      0.0144      0.0002      0.0005
       115        -0.0000      0.1488     -0.0000      0.0221      0.0523
       116         0.0000     -0.0991     -0.0000      0.0098      0.0231
       117        -0.0335     -0.0001      0.0041      0.0011      0.0027
       118         0.0216     -0.0000      0.0121      0.0006      0.0014
       119        -0.0000      0.0324      0.0000      0.0010      0.0025
       120         0.0187      0.0001     -0.0211      0.0008      0.0019
       121         0.0686     -0.0000     -0.0088      0.0048      0.0112
       122        -0.0000      0.0078      0.0000      0.0001      0.0001
       123        -0.0000     -0.0618     -0.0000      0.0038      0.0089
       124        -0.0000      0.0585      0.0000      0.0034      0.0079
       125         0.1736      0.0000     -0.0085      0.0302      0.0701
       126        -0.0000      0.0217      0.0000      0.0005      0.0011
       127        -0.0001     -0.0352      0.0000      0.0012      0.0029
       128         0.0000     -0.0867     -0.0000      0.0075      0.0173
       129         0.0268      0.0000     -0.0046      0.0007      0.0017
       130         0.0000     -0.0610      0.0000      0.0037      0.0085
       131        -0.0131     -0.0000     -0.0506      0.0027      0.0062
       132         0.0000      0.0050     -0.0000      0.0000      0.0001
       133         0.0226      0.0000     -0.0364      0.0018      0.0042
       134         0.0133      0.0000     -0.0343      0.0014      0.0031
       135         0.0000     -0.0136     -0.0001      0.0002      0.0004
       136        -0.0008      0.0009      0.0368      0.0014      0.0031
       137         0.0000     -0.0912      0.0004      0.0083      0.0189
       138        -0.0043     -0.0002      0.0419      0.0018      0.0040
       139        -0.0000     -0.0605     -0.0001      0.0037      0.0083
       140        -0.0000     -0.0475      0.0000      0.0023      0.0051
       141         0.0221      0.0000     -0.0014      0.0005      0.0011
       142        -0.0000     -0.0235      0.0000      0.0006      0.0012
       143        -0.0525     -0.0000      0.0354      0.0040      0.0090
       144        -0.0644      0.0000      0.0718      0.0093      0.0209
       145        -0.0910     -0.0001     -0.0638      0.0124      0.0278
       146         0.0001     -0.0768      0.0000      0.0059      0.0132
       147        -0.0000     -0.0357     -0.0000      0.0013      0.0029
       148        -0.0000      0.0305     -0.0000      0.0009      0.0021
       149         0.0127     -0.0010      0.0124      0.0003      0.0007
       150         0.0002      0.0604      0.0002      0.0037      0.0082
 Ground to excited state transition magnetic dipole moments (Au):
       state          X           Y           Z
         1         0.0198      0.0001      0.7143
         2         0.1816     -0.0000      0.1746
         3        -0.0000      0.0532      0.0000
         4         0.0119      0.0000      0.2114
         5        -0.0000     -0.1113      0.0000
         6        -0.0514      0.0000      1.2710
         7         0.0000     -0.0321     -0.0000
         8        -0.0000     -0.0927      0.0000
         9         0.0286     -0.0001     -1.6296
        10        -0.0000      0.3692     -0.0002
        11         0.0003      0.2221      0.0001
        12         0.5241     -0.0001     -0.0887
        13        -0.2561      0.0000     -0.0375
        14         0.0279      0.0001      0.5045
        15        -0.0000     -0.0420      0.0001
        16        -0.0001      0.3090      0.0000
        17        -0.0019     -0.1522      0.0078
        18        -0.1772      0.0015      0.7809
        19        -0.0121     -0.0000     -0.9631
        20         0.0000     -0.1386      0.0001
        21        -0.0106      0.0000      0.5370
        22         0.0000      0.0608      0.0000
        23        -0.1265     -0.0000      0.1181
        24        -0.0000     -0.0415      0.0001
        25        -0.0341      0.0000      1.4839
        26        -0.0430      0.0000      0.1769
        27         0.0000     -0.0892      0.0002
        28         0.0011     -0.4267     -0.0055
        29         0.1007      0.0049     -0.4867
        30        -0.0078      0.0003      2.3416
        31        -0.0000      0.5058     -0.0012
        32         0.0000     -0.0891      0.0001
        33        -0.0000      0.1201      0.0002
        34        -0.0002      0.2853      0.0029
        35        -0.1545     -0.0004      1.8860
        36        -0.3128      0.0000     -1.3337
        37        -0.0030     -0.1957      0.0118
        38         0.0522     -0.0111     -0.2055
        39         0.1912      0.0000     -0.5912
        40        -0.1997      0.0000      0.4745
        41         0.0720      0.0000      0.7683
        42        -0.1706     -0.0001      0.9159
        43        -0.0001      0.4185      0.0000
        44         0.5230      0.0000     -0.0278
        45         0.0001      0.0017      0.0001
        46         0.0000     -0.0707     -0.0000
        47         0.0005      0.3170      0.0003
        48        -0.1644      0.0011     -0.0568
        49         0.0001      0.0593      0.0002
        50        -0.0001     -0.4143     -0.0002
        51        -0.1977     -0.0000     -0.1742
        52        -0.0891     -0.0000     -0.2031
        53         0.0000      0.6254     -0.0002
        54         0.3595     -0.0001     -0.4545
        55         0.0000     -0.2124      0.0000
        56        -0.0001      0.0866      0.0002
        57        -0.1914     -0.0000     -0.2419
        58         0.1156     -0.0001     -0.3621
        59        -0.1203      0.0000      0.0657
        60         0.0002     -0.1051     -0.0003
        61         0.0000      0.2895     -0.0002
        62        -0.0384     -0.0000      0.1111
        63        -0.0639     -0.0000     -0.1265
        64         0.0000      0.1603      0.0014
        65         0.0355      0.0002     -1.2486
        66        -0.0001      0.2043     -0.0000
        67         0.2870      0.0001      0.2300
        68        -0.0000      0.1767     -0.0001
        69        -0.0000      0.0133     -0.0001
        70        -0.0001      0.3900     -0.0001
        71        -0.1702     -0.0001      0.1500
        72        -0.1492     -0.0002      0.5118
        73        -0.0006      0.0001      0.0173
        74        -0.0000      0.1067      0.0004
        75        -0.0000     -0.0366      0.0000
        76         0.0001      0.0247      0.0001
        77         0.4685      0.0005     -0.6198
        78         0.0023     -0.1007     -0.0024
        79        -0.1251     -0.0001     -1.3456
        80        -0.3525      0.0000      0.2617
        81         0.1939     -0.0003     -0.3646
        82        -0.0000     -0.8576      0.0000
        83         0.1684     -0.0001     -0.1051
        84         0.0000      1.3415     -0.0001
        85         0.0000     -0.0792      0.0001
        86        -0.2327     -0.0000     -0.8671
        87        -0.0000     -0.1419     -0.0002
        88        -0.3570      0.0000      0.3120
        89         0.0000     -0.1706     -0.0000
        90         0.2116     -0.0001     -0.1519
        91         0.0001      0.3421      0.0001
        92        -0.0001     -0.0368     -0.0008
        93         0.0003      0.1056     -0.0060
        94        -0.1319      0.0003      2.8860
        95        -0.0000     -0.2024     -0.0001
        96        -0.0448      0.0000     -1.3269
        97         0.1448      0.0000      0.4629
        98         0.1805      0.0000     -1.5794
        99         0.1512      0.0002     -1.5577
       100        -0.0004      0.0845      0.0040
       101         0.0001      0.0582     -0.0002
       102         0.1467      0.0001      0.5052
       103        -0.0000      0.4026      0.0004
       104        -0.0056      0.0002     -0.1639
       105         0.0238     -0.0001     -0.7525
       106         0.4152      0.0004      0.3936
       107        -0.0008      0.1937     -0.0010
       108         0.0002     -0.1276      0.0004
       109         0.0000      0.2500     -0.0001
       110         0.1433      0.0001     -0.1273
       111         0.0001     -0.1633     -0.0001
       112        -0.0533      0.0000      0.0742
       113         0.2477      0.0000      0.5530
       114        -0.2368     -0.0000      2.1458
       115         0.0001     -0.3513     -0.0006
       116        -0.0001     -0.0290      0.0002
       117         0.0501     -0.0000     -0.1608
       118        -0.1697      0.0001     -0.1736
       119         0.0003      0.4571     -0.0007
       120        -0.1499      0.0005      0.4614
       121        -0.4480     -0.0000      0.4416
       122         0.0001     -0.2531     -0.0002
       123         0.0001      0.0557      0.0001
       124        -0.0000      0.0176     -0.0002
       125         0.0611      0.0000      1.1810
       126         0.0000      0.0335     -0.0002
       127         0.0000     -0.2054     -0.0003
       128         0.0001     -0.1746      0.0001
       129        -0.0218     -0.0003      0.0804
       130        -0.0000      0.2686     -0.0001
       131         0.1604      0.0001     -0.2908
       132         0.0002     -0.9145     -0.0001
       133         0.5608      0.0004     -0.3757
       134         0.3267      0.0001     -0.1727
       135         0.0007     -0.1379     -0.0004
       136        -0.1885     -0.0022     -0.4877
       137        -0.0018      0.2305     -0.0048
       138        -0.1090      0.0005     -0.1857
       139         0.0003      0.1695      0.0007
       140        -0.0002      0.1393     -0.0000
       141         0.1584      0.0001     -0.0993
       142        -0.0001      0.5625      0.0003
       143         0.0133      0.0001     -0.5418
       144        -0.7755     -0.0002     -0.2750
       145         0.6523      0.0001     -0.7357
       146        -0.0005      0.1650      0.0008
       147         0.0004     -0.0419     -0.0002
       148         0.0003     -0.5646      0.0002
       149        -0.4302     -0.0040     -0.3093
       150        -0.0074      0.2384     -0.0053
 Ground to excited state transition velocity quadrupole moments (Au):
       state          XX          YY          ZZ          XY          XZ          YZ
         1         0.0001      0.0000     -0.0000      0.5168     -0.0000      0.0274
         2        -0.0001      0.0000      0.0000      0.0048      0.0000     -0.0467
         3        -0.1563      0.0902      0.0094      0.0000     -0.0070     -0.0000
         4         0.0001     -0.0000      0.0000     -0.2698     -0.0000      0.0193
         5         1.8245     -0.2459     -0.0168     -0.0000      0.0935     -0.0000
         6        -0.0001     -0.0000      0.0000      0.4268     -0.0000      0.0001
         7        -1.6892     -0.0351     -0.0059     -0.0000     -0.0447      0.0000
         8        -1.7340     -0.0894     -0.0038      0.0000     -0.0364      0.0000
         9        -0.0000     -0.0000     -0.0000     -0.8926     -0.0000     -0.0344
        10         0.1239      0.0013     -0.0061     -0.0001      0.1017     -0.0000
        11         0.2120      0.0149      0.0117      0.0001     -0.1177      0.0002
        12         0.0000      0.0000     -0.0000     -0.0333      0.0001      0.3170
        13         0.0000      0.0000     -0.0000      0.1164     -0.0000      0.0290
        14        -0.0000      0.0000      0.0000      0.6514     -0.0000      0.0207
        15         0.0292     -0.0218      0.0124      0.0000      0.0353      0.0000
        16         0.0833      0.2276      0.0345      0.0001     -0.1977     -0.0000
        17         0.3681      0.1086     -0.0154      0.0110      0.1430     -0.0007
        18        -0.0040     -0.0011      0.0002      1.1092     -0.0015     -0.0630
        19         0.0002     -0.0000     -0.0000     -1.3439      0.0000     -0.0380
        20        -4.1347     -0.3034      0.0637      0.0002      0.0016      0.0000
        21         0.0018      0.0001     -0.0000      0.8942      0.0000     -0.0073
        22         0.3255      0.3051     -0.0175     -0.0000     -0.0573     -0.0000
        23        -0.0004     -0.0001      0.0000     -0.1182      0.0000     -0.0461
        24         0.3350     -0.0687      0.0383      0.0002      0.0449      0.0000
        25         0.0002      0.0001     -0.0000      1.1600     -0.0000     -0.0107
        26         0.0002      0.0001     -0.0000      0.1675     -0.0000     -0.0987
        27        -1.6265     -0.6442      0.0526      0.0002      0.0573      0.0000
        28        -0.2752      0.3032      0.0752      0.0035      0.4379      0.0011
        29         0.0033     -0.0033     -0.0008      0.3053     -0.0050      0.1018
        30         0.0001     -0.0001     -0.0000      0.7225     -0.0003      0.0489
        31        -0.0210     -0.1176     -0.0674     -0.0004     -0.4843     -0.0000
        32        -0.5067      0.1369     -0.0055      0.0001      0.0555      0.0000
        33         0.0639      0.1365      0.0887      0.0001     -0.1268      0.0000
        34         1.9173     -0.2087     -0.0611      0.0014     -0.1923     -0.0000
        35        -0.0034      0.0003      0.0001      0.9176      0.0002     -0.0250
        36         0.0006     -0.0000      0.0000     -0.9045      0.0000     -0.1715
        37         7.4212     -0.8473      0.0077      0.0048      0.3715      0.0008
        38         0.4193     -0.0478      0.0004     -0.0827      0.0210     -0.0149
[...]
    23  C    0.000072  -0.000067  -0.000173  -0.005937  -0.001467   0.006189
    24  H    0.000005   0.000723  -0.002092  -0.002479   0.000005   0.000723
    25  H   -0.037984   0.033270  -0.007689  -0.000007   0.000000   0.000000
    26  H    0.431608  -0.061835   0.007998   0.000000   0.000000  -0.000000
    27  H   -0.070387   0.417909  -0.014376  -0.000000  -0.000000  -0.000000
    28  H    0.012805  -0.021736   0.438085   0.000000  -0.000000  -0.000000
    29  H    0.000000   0.000000   0.000001   0.350001  -0.037986   0.033269
    30  H    0.000000  -0.000000  -0.000000  -0.020807   0.431606  -0.061836
    31  H   -0.000000  -0.000000   0.000000   0.006794  -0.070386   0.417906
    32  H   -0.000000  -0.000000  -0.000000   0.005100   0.012804  -0.021740
    33  H   -0.000327   0.002171   0.007127   0.000126   0.000005  -0.000017
    34  H    0.001374   0.015328   0.020253  -0.000004  -0.000000   0.000001
    35  H    0.000952   0.004437   0.019125  -0.000005  -0.000000   0.000000
    36  H    0.000183  -0.000656   0.001083  -0.000016  -0.000001   0.000004
    37  H   -0.000159  -0.000569  -0.006655   0.000001   0.000000  -0.000001
    38  H    0.000005  -0.000017  -0.000150  -0.002385  -0.000328   0.002173
    39  H   -0.000000   0.000001  -0.000002  -0.001996   0.001374   0.015320
    40  H   -0.000000   0.000000   0.000001   0.001691   0.000952   0.004441
    41  H   -0.000001   0.000004  -0.000001   0.000837   0.000183  -0.000656
    42  H    0.000000  -0.000001  -0.000002  -0.000251  -0.000159  -0.000570
              19         20         21         22         23         24
     1  C    0.014371  -0.245116  -0.000777  -0.055958   0.018142  -0.006722
     2  C   -0.017712  -0.011769   0.037107  -0.011794   0.037107   0.352757
     3  C   -0.177026  -0.055986   0.018152  -0.245083  -0.000790  -0.006714
     4  N   -0.183648   0.001163   0.002237   0.202108   0.032008  -0.015974
     5  S   -0.009863   0.027227  -0.074031   0.013040   0.020342   0.024641
     6  C   -0.000688   0.043126  -0.012169  -0.005670   0.003906  -0.008740
     7  C    0.000788   0.062689  -0.101790  -0.012274   0.003205  -0.005024
     8  N   -0.000029   0.202181   0.032010   0.001174   0.002233  -0.015976
     9  S    0.034000   0.013063   0.020342   0.027211  -0.074022   0.024649
    10  C   -0.041318  -0.005678   0.003910   0.043094  -0.012157  -0.008745
    11  C   -0.226575  -0.012284   0.003208   0.062725  -0.101813  -0.005025
    12  C   -0.000540   0.046640  -0.005943  -0.001520   0.001073  -0.002478
    13  C   -0.000053  -0.002695  -0.001466  -0.000012   0.000072   0.000005
    14  C    0.000064  -0.074054   0.006176   0.000254  -0.000067   0.000723
    15  C   -0.000252  -0.047861   0.021374   0.002335  -0.000173  -0.002092
    16  C    0.326473  -0.001522   0.001074   0.046647  -0.005937  -0.002479
    17  C    0.099692  -0.000012   0.000072  -0.002684  -0.001467   0.000005
    18  C    0.392935   0.000255  -0.000068  -0.074084   0.006189   0.000723
    19  C    5.672554   0.002337  -0.000173  -0.047869   0.021394  -0.002094
    20  C    0.002337   5.628143  -0.016427  -0.013864   0.002136   0.002366
    21  C   -0.000173  -0.016427   5.334192   0.002137  -0.001470  -0.007846
    22  C   -0.047869  -0.013864   0.002137   5.628219  -0.016402   0.002348
    23  C    0.021394   0.002136  -0.001470  -0.016402   5.334155  -0.007843
    24  H   -0.002094   0.002366  -0.007846   0.002348  -0.007843   0.523177
    25  H    0.000001  -0.000028   0.000133  -0.000002   0.000000   0.000002
    26  H   -0.000000   0.000037   0.000027   0.000000  -0.000000   0.000000
    27  H    0.000000   0.000664  -0.000012  -0.000000   0.000000  -0.000000
    28  H   -0.000000   0.000075  -0.002319  -0.000002   0.000001  -0.000020
    29  H   -0.007690  -0.000002   0.000000  -0.000028   0.000133   0.000002
    30  H    0.008000   0.000000  -0.000000   0.000037   0.000027   0.000000
    31  H   -0.014374  -0.000000   0.000000   0.000664  -0.000012  -0.000000
    32  H    0.438087  -0.000002   0.000001   0.000076  -0.002319  -0.000020
    33  H   -0.000150   0.389954  -0.023020   0.006256  -0.003394  -0.000247
    34  H   -0.000002   0.398274  -0.035400   0.000341  -0.000131   0.000511
    35  H    0.000001  -0.049465   0.427356   0.000227  -0.000093   0.000164
    36  H   -0.000001  -0.038818   0.417326  -0.002875   0.000997  -0.000666
    37  H   -0.000002  -0.030626   0.402933   0.000019  -0.000162   0.000182
    38  H    0.007130   0.006257  -0.003395   0.389953  -0.023021  -0.000247
    39  H    0.020256   0.000341  -0.000132   0.398266  -0.035398   0.000511
    40  H    0.019132   0.000227  -0.000093  -0.049466   0.427359   0.000164
    41  H    0.001083  -0.002873   0.000996  -0.038820   0.417327  -0.000666
    42  H   -0.006654   0.000019  -0.000162  -0.030623   0.402930   0.000182
              25         26         27         28         29         30
     1  C    0.005432  -0.000257  -0.002043   0.012737  -0.001033   0.000008
     2  C    0.000919   0.000069  -0.000113   0.000589   0.000919   0.000069
     3  C   -0.001033   0.000008  -0.000005   0.000270   0.005433  -0.000257
     4  N   -0.000002   0.000000  -0.000000   0.000001   0.002271   0.000644
     5  S   -0.006466   0.000599  -0.000585  -0.002941   0.000799   0.000020
     6  C   -0.009830  -0.021278   0.010567  -0.004013   0.000087  -0.000000
     7  C    0.009036   0.011695  -0.001569  -0.088123   0.000002  -0.000000
     8  N    0.002271   0.000644  -0.000141  -0.002778  -0.000002   0.000000
     9  S    0.000799   0.000020  -0.000017   0.000007  -0.006465   0.000599
    10  C    0.000087  -0.000000   0.000000   0.000001  -0.009828  -0.021279
    11  C    0.000002  -0.000000   0.000000   0.000000   0.009036   0.011695
    12  C    0.350002  -0.020807   0.006795   0.005099  -0.000007   0.000000
    13  C   -0.037984   0.431608  -0.070387   0.012805   0.000000   0.000000
    14  C    0.033270  -0.061835   0.417909  -0.021736   0.000000  -0.000000
    15  C   -0.007689   0.007998  -0.014376   0.438085   0.000001  -0.000000
    16  C   -0.000007   0.000000  -0.000000   0.000000   0.350001  -0.020807
    17  C    0.000000   0.000000  -0.000000  -0.000000  -0.037986   0.431606
    18  C    0.000000  -0.000000  -0.000000  -0.000000   0.033269  -0.061836
    19  C    0.000001  -0.000000   0.000000  -0.000000  -0.007690   0.008000
    20  C   -0.000028   0.000037   0.000664   0.000075  -0.000002   0.000000
    21  C    0.000133   0.000027  -0.000012  -0.002319   0.000000  -0.000000
    22  C   -0.000002   0.000000  -0.000000  -0.000002  -0.000028   0.000037
    23  C    0.000000  -0.000000   0.000000   0.000001   0.000133   0.000027
    24  H    0.000002   0.000000  -0.000000  -0.000020   0.000002   0.000000
    25  H    0.510690  -0.004394  -0.000300   0.000050   0.000000  -0.000000
    26  H   -0.004394   0.524828  -0.004741  -0.000277  -0.000000  -0.000000
    27  H   -0.000300  -0.004741   0.527777  -0.005204   0.000000   0.000000
    28  H    0.000050  -0.000277  -0.005204   0.507753  -0.000000  -0.000000
    29  H    0.000000  -0.000000   0.000000  -0.000000   0.510690  -0.004394
    30  H   -0.000000  -0.000000   0.000000  -0.000000  -0.004394   0.524828
    31  H    0.000000   0.000000  -0.000000  -0.000000  -0.000300  -0.004741
    32  H   -0.000000  -0.000000  -0.000000   0.000000   0.000050  -0.000277
    33  H   -0.000000  -0.000000  -0.000000   0.000080   0.000000  -0.000000
    34  H    0.000001  -0.000000   0.000027   0.000920   0.000000   0.000000
    35  H   -0.000001  -0.000000  -0.000002  -0.000269   0.000000  -0.000000
    36  H    0.000000  -0.000000   0.000000   0.000007   0.000000   0.000000
    37  H    0.000000   0.000000  -0.000001   0.000130   0.000000  -0.000000
    38  H    0.000000  -0.000000   0.000000   0.000000  -0.000000  -0.000000
    39  H    0.000000   0.000000  -0.000000  -0.000000   0.000001  -0.000000
    40  H    0.000000  -0.000000   0.000000   0.000000  -0.000001  -0.000000
    41  H    0.000000   0.000000  -0.000000  -0.000000   0.000000  -0.000000
    42  H    0.000000  -0.000000   0.000000  -0.000000   0.000000   0.000000
              31         32         33         34         35         36
     1  C   -0.000005   0.000270   0.003915   0.007598  -0.009932  -0.008337
     2  C   -0.000113   0.000589   0.018816  -0.003671   0.004756   0.009352
     3  C   -0.002043   0.012737   0.016341  -0.000705  -0.001334  -0.002907
     4  N   -0.000141  -0.002778  -0.000285  -0.000074  -0.000009   0.000128
     5  S   -0.000017   0.000007  -0.007893   0.002674  -0.002752  -0.002185
     6  C    0.000000   0.000001  -0.012544  -0.001055   0.004920   0.006812
     7  C    0.000000   0.000000  -0.021874  -0.014154  -0.022760  -0.002974
     8  N   -0.000000   0.000001  -0.028348  -0.041187   0.008103   0.006490
     9  S   -0.000585  -0.002941   0.002194  -0.000588  -0.000127  -0.000134
    10  C    0.010566  -0.004014   0.001150  -0.000030  -0.000053  -0.000201
    11  C   -0.001568  -0.088122   0.001510   0.000005  -0.000033  -0.000118
    12  C   -0.000000   0.000000  -0.002384  -0.001998   0.001692   0.000837
    13  C   -0.000000  -0.000000  -0.000327   0.001374   0.000952   0.000183
    14  C   -0.000000  -0.000000   0.002171   0.015328   0.004437  -0.000656
    15  C    0.000000  -0.000000   0.007127   0.020253   0.019125   0.001083
    16  C    0.006794   0.005100   0.000126  -0.000004  -0.000005  -0.000016
    17  C   -0.070386   0.012804   0.000005  -0.000000  -0.000000  -0.000001
    18  C    0.417906  -0.021740  -0.000017   0.000001   0.000000   0.000004
    19  C   -0.014374   0.438087  -0.000150  -0.000002   0.000001  -0.000001
    20  C   -0.000000  -0.000002   0.389954   0.398274  -0.049465  -0.038818
    21  C    0.000000   0.000001  -0.023020  -0.035400   0.427356   0.417326
    22  C    0.000664   0.000076   0.006256   0.000341   0.000227  -0.002875
    23  C   -0.000012  -0.002319  -0.003394  -0.000131  -0.000093   0.000997
    24  H   -0.000000  -0.000020  -0.000247   0.000511   0.000164  -0.000666
    25  H    0.000000  -0.000000  -0.000000   0.000001  -0.000001   0.000000
    26  H    0.000000  -0.000000  -0.000000  -0.000000  -0.000000  -0.000000
    27  H   -0.000000  -0.000000  -0.000000   0.000027  -0.000002   0.000000
    28  H   -0.000000   0.000000   0.000080   0.000920  -0.000269   0.000007
    29  H   -0.000300   0.000050   0.000000   0.000000   0.000000   0.000000
    30  H   -0.004741  -0.000277  -0.000000   0.000000  -0.000000   0.000000
    31  H    0.527776  -0.005204   0.000000  -0.000000   0.000000  -0.000000
    32  H   -0.005204   0.507749   0.000000  -0.000000   0.000000  -0.000000
    33  H    0.000000   0.000000   0.521516  -0.024368   0.004953  -0.006332
    34  H   -0.000000  -0.000000  -0.024368   0.521607  -0.006385   0.005413
    35  H    0.000000   0.000000   0.004953  -0.006385   0.520543  -0.030662
    36  H   -0.000000  -0.000000  -0.006332   0.005413  -0.030662   0.520978
    37  H    0.000000  -0.000000  -0.002114  -0.001618  -0.024449  -0.024588
    38  H   -0.000000   0.000080  -0.000816  -0.000016  -0.000004   0.000501
    39  H    0.000027   0.000920  -0.000016  -0.000000   0.000000   0.000005
    40  H   -0.000002  -0.000269  -0.000004   0.000000   0.000000   0.000001
    41  H    0.000000   0.000007   0.000501   0.000005   0.000001  -0.000009
    42  H   -0.000001   0.000130  -0.000040  -0.000000   0.000000   0.000004
              37         38         39         40         41         42
     1  C    0.006460   0.016352  -0.000709  -0.001332  -0.002909  -0.000139
     2  C   -0.006152   0.018816  -0.003667   0.004755   0.009351  -0.006150
     3  C   -0.000139   0.003929   0.007589  -0.009931  -0.008334   0.006458
     4  N   -0.000059  -0.028350  -0.041187   0.008107   0.006489   0.001174
     5  S    0.002219   0.002195  -0.000588  -0.000127  -0.000134  -0.000204
     6  C   -0.002080   0.001151  -0.000030  -0.000053  -0.000201   0.000031
     7  C    0.010520   0.001510   0.000005  -0.000033  -0.000117  -0.000035
     8  N    0.001170  -0.000286  -0.000074  -0.000009   0.000128  -0.000059
     9  S   -0.000204  -0.007897   0.002675  -0.002751  -0.002183   0.002218
    10  C    0.000031  -0.012549  -0.001049   0.004919   0.006813  -0.002078
    11  C   -0.000035  -0.021886  -0.014142  -0.022774  -0.002974   0.010518
    12  C   -0.000251   0.000126  -0.000004  -0.000005  -0.000016   0.000001
    13  C   -0.000159   0.000005  -0.000000  -0.000000  -0.000001   0.000000
    14  C   -0.000569  -0.000017   0.000001   0.000000   0.000004  -0.000001
    15  C   -0.006655  -0.000150  -0.000002   0.000001  -0.000001  -0.000002
    16  C    0.000001  -0.002385  -0.001996   0.001691   0.000837  -0.000251
    17  C    0.000000  -0.000328   0.001374   0.000952   0.000183  -0.000159
    18  C   -0.000001   0.002173   0.015320   0.004441  -0.000656  -0.000570
    19  C   -0.000002   0.007130   0.020256   0.019132   0.001083  -0.006654
    20  C   -0.030626   0.006257   0.000341   0.000227  -0.002873   0.000019
    21  C    0.402933  -0.003395  -0.000132  -0.000093   0.000996  -0.000162
    22  C    0.000019   0.389953   0.398266  -0.049466  -0.038820  -0.030623
    23  C   -0.000162  -0.023021  -0.035398   0.427359   0.417327   0.402930
    24  H    0.000182  -0.000247   0.000511   0.000164  -0.000666   0.000182
    25  H    0.000000   0.000000   0.000000   0.000000   0.000000   0.000000
    26  H    0.000000  -0.000000   0.000000  -0.000000   0.000000  -0.000000
    27  H   -0.000001   0.000000  -0.000000   0.000000  -0.000000   0.000000
    28  H    0.000130   0.000000  -0.000000   0.000000  -0.000000  -0.000000
    29  H    0.000000  -0.000000   0.000001  -0.000001   0.000000   0.000000
    30  H   -0.000000  -0.000000  -0.000000  -0.000000  -0.000000   0.000000
    31  H    0.000000  -0.000000   0.000027  -0.000002   0.000000  -0.000001
    32  H   -0.000000   0.000080   0.000920  -0.000269   0.000007   0.000130
    33  H   -0.002114  -0.000816  -0.000016  -0.000004   0.000501  -0.000040
    34  H   -0.001618  -0.000016  -0.000000   0.000000   0.000005  -0.000000
    35  H   -0.024449  -0.000004   0.000000   0.000000   0.000001   0.000000
    36  H   -0.024588   0.000501   0.000005   0.000001  -0.000009   0.000004
    37  H    0.524334  -0.000040  -0.000000   0.000000   0.000004   0.000001
    38  H   -0.000040   0.521509  -0.024367   0.004953  -0.006331  -0.002116
    39  H   -0.000000  -0.024367   0.521607  -0.006386   0.005413  -0.001618
    40  H    0.000000   0.004953  -0.006386   0.520542  -0.030662  -0.024450
    41  H    0.000004  -0.006331   0.005413  -0.030662   0.520976  -0.024588
    42  H    0.000001  -0.002116  -0.001618  -0.024450  -0.024588   0.524335
 Mulliken charges:
               1
     1  C    0.426084
     2  C   -0.407728
     3  C    0.426006
     4  N    0.166111
     5  S   -0.549454
     6  C    0.557198
     7  C    0.486566
     8  N    0.166068
     9  S   -0.549463
    10  C    0.557234
    11  C    0.486505
    12  C   -0.368781
    13  C   -0.236389
    14  C   -0.221788
    15  C   -0.321633
    16  C   -0.368712
    17  C   -0.236400
    18  C   -0.221823
    19  C   -0.321583
    20  C   -0.218091
    21  C   -0.444072
    22  C   -0.218102
    23  C   -0.444066
    24  H    0.166503
    25  H    0.155042
    26  H    0.136058
    27  H    0.135756
    28  H    0.149071
    29  H    0.155042
    30  H    0.136059
    31  H    0.135756
    32  H    0.149075
    33  H    0.157559
    34  H    0.157055
    35  H    0.151104
    36  H    0.151357
    37  H    0.151901
    38  H    0.157559
    39  H    0.157055
    40  H    0.151104
    41  H    0.151358
    42  H    0.151900
 Sum of Mulliken charges =   1.00000
 Mulliken charges with hydrogens summed into heavy atoms:
               1
     1  C    0.426084
     2  C   -0.241225
     3  C    0.426006
     4  N    0.166111
     5  S   -0.549454
     6  C    0.557198
     7  C    0.486566
     8  N    0.166068
     9  S   -0.549463
    10  C    0.557234
    11  C    0.486505
    12  C   -0.213740
    13  C   -0.100331
    14  C   -0.086032
    15  C   -0.172561
    16  C   -0.213669
    17  C   -0.100342
    18  C   -0.086067
    19  C   -0.172508
    20  C    0.096522
    21  C    0.010291
    22  C    0.096512
    23  C    0.010295
 Electronic spatial extent (au):  <R**2>=          10370.1893
 Charge=              1.0000 electrons
 Dipole moment (field-independent basis, Debye):
    X=              0.0001    Y=              5.3657    Z=              0.0001  Tot=              5.3657
 Quadrupole moment (field-independent basis, Debye-Ang):
   XX=            -71.0035   YY=           -110.0988   ZZ=           -154.8490
   XY=             -0.0003   XZ=              2.1521   YZ=             -0.0005
 Traceless Quadrupole moment (field-independent basis, Debye-Ang):
   XX=             40.9803   YY=              1.8850   ZZ=            -42.8653
   XY=             -0.0003   XZ=              2.1521   YZ=             -0.0005
 Octapole moment (field-independent basis, Debye-Ang**2):
  XXX=              0.0020  YYY=             22.7449  ZZZ=              0.0003  XYY=             -0.0003
  XXY=              3.3522  XXZ=              0.0024  XZZ=             -0.0001  YZZ=             14.9244
  YYZ=              0.0017  XYZ=              6.9193
 Hexadecapole moment (field-independent basis, Debye-Ang**3):
 XXXX=          -8729.6312 YYYY=          -2349.2001 ZZZZ=           -344.1333 XXXY=             -0.0063
 XXXZ=             76.8335 YYYX=             -0.0079 YYYZ=             -0.0038 ZZZX=             -9.9943
 ZZZY=              0.0014 XXYY=          -1856.7876 XXZZ=          -2141.9947 YYZZ=           -523.6557
 XXYZ=             -0.0139 YYXZ=              2.0577 ZZXY=              0.0003
 N-N= 2.127852619795D+03 E-N=-8.086779395349D+03  KE= 1.636261271360D+03
 Unable to Open any file for archive entry.
 1\1\GINC-CN11\SP\RB3LYP TD-FC\6-311+G(2d,p)\C19H19N2S2(1+)\2100011873\
 02-Nov-2023\0\\# td=(nstates=150) b3lyp/6-311+g(2d,p) scrf(smd, solven
 t=ethanol)\\A-1\\1,1\C,0,-1.259214,0.216698,-0.039367\C,0,0.000003,0.8
 28935,-0.000122\C,0,1.259209,0.216684,0.039249\N,0,2.433464,0.904848,0
 .145998\S,0,-1.557561,-1.512152,0.053882\C,0,-3.297665,-1.258824,-0.02
 7283\C,0,-3.589904,0.108866,-0.118299\N,0,-2.433474,0.904863,-0.146106
 \S,0,1.557549,-1.512171,-0.053923\C,0,3.297657,-1.25885,0.027304\C,0,3
 .5899,0.108842,0.118251\C,0,-4.301571,-2.224422,-0.003624\C,0,-5.62464
 5,-1.792125,-0.066975\C,0,-5.925643,-0.425687,-0.149009\C,0,-4.920394,
 0.538274,-0.174272\C,0,4.301563,-2.22445,0.003718\C,0,5.624635,-1.7921
 49,0.067066\C,0,5.925635,-0.425707,0.149021\C,0,4.920384,0.538258,0.17
 4213\C,0,-2.510348,2.373529,-0.257226\C,0,-2.566433,3.073786,1.101522\
 C,0,2.510339,2.373497,0.257299\C,0,2.566508,3.073929,-1.101357\H,0,0.0
 00014,1.90904,-0.000214\H,0,-4.060576,-3.280313,0.063971\H,0,-6.427238
 ,-2.522132,-0.049094\H,0,-6.962056,-0.106514,-0.191342\H,0,-5.176748,1
 .590213,-0.22813\H,0,4.060566,-3.280345,-0.063815\H,0,6.42723,-2.52215
 6,0.049231\H,0,6.962048,-0.106532,0.191339\H,0,5.176733,1.590201,0.228
 019\H,0,-1.657488,2.708489,-0.852128\H,0,-3.398115,2.597174,-0.852215\
 H,0,-3.441185,2.752064,1.674572\H,0,-1.673838,2.863356,1.699082\H,0,-2
 .63423,4.156364,0.954302\H,0,1.657436,2.708379,0.852183\H,0,3.398074,2
 .597059,0.85237\H,0,3.441334,2.752344,-1.674368\H,0,1.673988,2.86351,-
 1.699033\H,0,2.634214,4.156493,-0.95399\\Version=ES64L-G16RevC.02\Stat
 e=1-A\HF=-1641.5325397\RMSD=5.742e-09\PG=C01 [X(C19H19N2S2)]\\@
 The archive entry for this job was punched.


 THERE'S SMALL CHOICE IN A BOWL OF ROTTEN APPLES.
                     SHAKESPEARE
 Job cpu time:       2 days 10 hours 30 minutes 59.3 seconds.
 Elapsed time:       0 days  1 hours 53 minutes 37.0 seconds.
 File lengths (MBytes):  RWF=  25952 Int=      0 D2E=      0 Chk=   2368 Scr=     32
 Normal termination of Gaussian 16 at Thu Nov  2 20:52:11 2023.
