 Entering Gaussian System, Link 0=g16
 Input=Linux-A4.gjf
 Output=Linux-A4.log
 Initial command:
 /nfs-share/home/2100011873/Gaussian16_AVX2/g16/l1.exe "/nfs-share/home/2100011873/GaussTmp/Gau-233610.inp" -scrdir="/nfs-share/home/2100011873/GaussTmp/"
 Entering Link 1 = /nfs-share/home/2100011873/Gaussian16_AVX2/g16/l1.exe PID=    233611.
  
 Copyright (c) 1988-2021, Gaussian, Inc.  All Rights Reserved.
  
 This is part of the Gaussian(R) 16 program.  It is based on
 the Gaussian(R) 09 system (copyright 2009, Gaussian, Inc.),
 the Gaussian(R) 03 system (copyright 2003, Gaussian, Inc.),
 the Gaussian(R) 98 system (copyright 1998, Gaussian, Inc.),
 the Gaussian(R) 94 system (copyright 1995, Gaussian, Inc.),
 the Gaussian 92(TM) system (copyright 1992, Gaussian, Inc.),
 the Gaussian 90(TM) system (copyright 1990, Gaussian, Inc.),
 the Gaussian 88(TM) system (copyright 1988, Gaussian, Inc.),
 the Gaussian 86(TM) system (copyright 1986, Carnegie Mellon
 University), and the Gaussian 82(TM) system (copyright 1983,
 Carnegie Mellon University). Gaussian is a federally registered
 trademark of Gaussian, Inc.
  
 This software contains proprietary and confidential information,
 including trade secrets, belonging to Gaussian, Inc.
  
 This software is provided under written license and may be
 used, copied, transmitted, or stored only in accord with that
 written license.
  
 The following legend is applicable only to US Government
 contracts under FAR:
  
                    RESTRICTED RIGHTS LEGEND
  
 Use, reproduction and disclosure by the US Government is
 subject to restrictions as set forth in subparagraphs (a)
 and (c) of the Commercial Computer Software - Restricted
 Rights clause in FAR 52.227-19.
  
 Gaussian, Inc.
 340 Quinnipiac St., Bldg. 40, Wallingford CT 06492
  
  
 ---------------------------------------------------------------
 Warning -- This program may not be used in any manner that
 competes with the business of Gaussian, Inc. or will provide
 assistance to any competitor of Gaussian, Inc.  The licensee
 of this program is prohibited from giving any competitor of
 Gaussian, Inc. access to this program.  By using this program,
 the user acknowledges that Gaussian, Inc. is engaged in the
 business of creating and licensing software in the field of
 computational chemistry and represents and warrants to the
 licensee that it is not a competitor of Gaussian, Inc. and that
 it will not use this program in any manner prohibited above.
 ---------------------------------------------------------------
  

 Cite this work as:
 Gaussian 16, Revision C.02,
 M. J. Frisch, G. W. Trucks, H. B. Schlegel, G. E. Scuseria, 
 M. A. Robb, J. R. Cheeseman, G. Scalmani, V. Barone, 
 G. A. Petersson, H. Nakatsuji, X. Li, M. Caricato, A. V. Marenich, 
 J. Bloino, B. G. Janesko, R. Gomperts, B. Mennucci, H. P. Hratchian, 
 J. V. Ortiz, A. F. Izmaylov, J. L. Sonnenberg, D. Williams-Young, 
 F. Ding, F. Lipparini, F. Egidi, J. Goings, B. Peng, A. Petrone, 
 T. Henderson, D. Ranasinghe, V. G. Zakrzewski, J. Gao, N. Rega, 
 G. Zheng, W. Liang, M. Hada, M. Ehara, K. Toyota, R. Fukuda, 
 J. Hasegawa, M. Ishida, T. Nakajima, Y. Honda, O. Kitao, H. Nakai, 
 T. Vreven, K. Throssell, J. A. Montgomery, Jr., J. E. Peralta, 
 F. Ogliaro, M. J. Bearpark, J. J. Heyd, E. N. Brothers, K. N. Kudin, 
 V. N. Staroverov, T. A. Keith, R. Kobayashi, J. Normand, 
 K. Raghavachari, A. P. Rendell, J. C. Burant, S. S. Iyengar, 
 J. Tomasi, M. Cossi, J. M. Millam, M. Klene, C. Adamo, R. Cammi, 
 J. W. Ochterski, R. L. Martin, K. Morokuma, O. Farkas, 
 J. B. Foresman, and D. J. Fox, Gaussian, Inc., Wallingford CT, 2019.
 
 ******************************************
 Gaussian 16:  ES64L-G16RevC.02  7-Dec-2021
                 2-Nov-2023 
 ******************************************
 %nprocshared=32
 Will use up to   32 processors via shared memory.
 %mem=128GB
 -----------------------------------------------------------------
 # td=(nstates=150) b3lyp/6-311+g(2d,p) scrf(smd, solvent=ethanol)
 -----------------------------------------------------------------
 1/38=1,172=1/1;
 2/12=2,17=6,18=5,40=1/2;
 3/5=4,6=6,7=112,11=9,25=1,30=1,70=32201,72=4,74=-5/1,2,3,8;
 4//1;
 5/5=2,38=5,53=4/2;
 8/6=1,10=2,108=150/1;
 9/41=150,42=1,70=2/14;
 6/7=2,8=2,9=2,10=2/1;
 99/5=1,9=1/99;
 ---
 A-4
 ---
 Symbolic Z-matrix:
 Charge =  1 Multiplicity = 1
 C                    -3.66371  -1.05195  -0.11156 
 C                    -2.38964  -0.47998  -0.08346 
 C                    -1.19497  -1.195    -0.06404 
 C                     0.05835  -0.57832  -0.03561 
 C                    -4.85534  -0.32376  -0.12489 
 S                    -4.92666   1.43671  -0.06062 
 C                    -6.68823   1.40203  -0.08329 
 C                    -7.15496   0.07936  -0.13945 
 N                    -6.11186  -0.85727  -0.18359 
 C                    -7.56515   2.4827   -0.04892 
 C                    -8.93496   2.22022  -0.06579 
 C                    -9.40707   0.90276  -0.11322 
 C                    -8.52936  -0.17953  -0.14882 
 C                    -6.36628  -2.30687  -0.24831 
 C                    -6.46714  -2.95588   1.13326 
 C                     1.28216  -1.24609  -0.01605 
 C                     2.51113  -0.58289   0.01194 
 C                     3.74122  -1.24435  -0.00844 
 C                     5.05244  -0.74902   0.00881 
 S                     6.36259  -1.86699  -0.36529 
 C                     7.56298  -0.60081  -0.16552 
 C                     6.94102   0.61236   0.16985 
 N                     5.54483   0.4953    0.28326 
 C                     8.94627  -0.69554  -0.30211 
 C                     9.70836   0.45414  -0.1007 
 C                     9.09298   1.66866   0.22877 
 C                     7.70945   1.76455   0.3665 
 C                     4.73281   1.62303   0.77014 
 C                     4.28228   2.56989  -0.34424 
 H                    -3.73183  -2.13483  -0.11343 
 H                    -2.31025   0.60799  -0.07629 
 H                    -1.23762  -2.28343  -0.07261 
 H                     0.07916   0.51298  -0.02766 
 H                    -7.19294   3.50135  -0.00844 
 H                    -9.63821   3.04629  -0.03843 
 H                    -10.47604   0.71486  -0.1197 
 H                    -8.91454  -1.19267  -0.17489 
 H                    -7.28921  -2.44204  -0.81662 
 H                    -5.57073  -2.7575   -0.84565 
 H                    -6.66636  -4.02676   1.02338 
 H                    -5.53664  -2.83556   1.69652 
 H                    -7.28005  -2.51465   1.718 
 H                     1.27987  -2.33528  -0.02423 
 H                     2.47239   0.50228   0.01364 
 H                     3.69108  -2.32677  -0.1054 
 H                     9.41663  -1.63929  -0.55871 
 H                     10.78759   0.40544  -0.2035 
 H                     9.70031   2.55586   0.37729 
 H                     7.25129   2.71614   0.61119 
 H                     3.88711   1.20264   1.31689 
 H                     5.34278   2.15493   1.50515 
 H                     3.66872   2.05491  -1.08995 
 H                     3.6925    3.38719   0.08394 
 H                     5.14149   3.00595  -0.86259 
 
 Stoichiometry    C25H25N2S2(1+)
 Framework group  C1[X(C25H25N2S2)]
 Deg. of freedom   156
 Full point group                 C1      NOp   1
 Largest Abelian subgroup         C1      NOp   1
 Largest concise Abelian subgroup C1      NOp   1
                         Standard orientation:                         
 ---------------------------------------------------------------------
 Center     Atomic      Atomic             Coordinates (Angstroms)
 Number     Number       Type             X           Y           Z
 ---------------------------------------------------------------------
      1          6           0       -3.663712   -1.051948   -0.111557
      2          6           0       -2.389638   -0.479979   -0.083458
      3          6           0       -1.194967   -1.195004   -0.064041
      4          6           0        0.058349   -0.578322   -0.035613
      5          6           0       -4.855344   -0.323764   -0.124892
      6         16           0       -4.926662    1.436711   -0.060618
      7          6           0       -6.688233    1.402029   -0.083292
      8          6           0       -7.154955    0.079357   -0.139452
      9          7           0       -6.111858   -0.857268   -0.183590
     10          6           0       -7.565153    2.482703   -0.048916
     11          6           0       -8.934956    2.220220   -0.065794
     12          6           0       -9.407072    0.902760   -0.113224
     13          6           0       -8.529361   -0.179533   -0.148820
     14          6           0       -6.366284   -2.306872   -0.248314
     15          6           0       -6.467137   -2.955883    1.133259
     16          6           0        1.282162   -1.246091   -0.016052
     17          6           0        2.511127   -0.582889    0.011938
     18          6           0        3.741215   -1.244345   -0.008435
     19          6           0        5.052439   -0.749020    0.008808
     20         16           0        6.362590   -1.866987   -0.365292
     21          6           0        7.562983   -0.600806   -0.165520
     22          6           0        6.941017    0.612357    0.169846
     23          7           0        5.544832    0.495298    0.283261
     24          6           0        8.946272   -0.695535   -0.302110
     25          6           0        9.708364    0.454142   -0.100703
     26          6           0        9.092982    1.668657    0.228770
     27          6           0        7.709445    1.764545    0.366500
     28          6           0        4.732809    1.623027    0.770139
     29          6           0        4.282282    2.569892   -0.344236
     30          1           0       -3.731831   -2.134826   -0.113428
     31          1           0       -2.310249    0.607987   -0.076294
     32          1           0       -1.237617   -2.283434   -0.072611
     33          1           0        0.079156    0.512977   -0.027655
     34          1           0       -7.192939    3.501353   -0.008437
     35          1           0       -9.638205    3.046285   -0.038434
     36          1           0      -10.476042    0.714855   -0.119701
     37          1           0       -8.914544   -1.192671   -0.174894
     38          1           0       -7.289207   -2.442036   -0.816617
     39          1           0       -5.570728   -2.757498   -0.845647
     40          1           0       -6.666359   -4.026758    1.023381
     41          1           0       -5.536643   -2.835556    1.696522
     42          1           0       -7.280055   -2.514652    1.717995
     43          1           0        1.279871   -2.335280   -0.024232
     44          1           0        2.472390    0.502280    0.013643
     45          1           0        3.691082   -2.326769   -0.105404
     46          1           0        9.416627   -1.639291   -0.558710
     47          1           0       10.787594    0.405440   -0.203502
     48          1           0        9.700309    2.555856    0.377290
     49          1           0        7.251286    2.716142    0.611187
     50          1           0        3.887111    1.202637    1.316886
     51          1           0        5.342782    2.154926    1.505154
     52          1           0        3.668719    2.054906   -1.089954
     53          1           0        3.692500    3.387191    0.083941
     54          1           0        5.141488    3.005946   -0.862588
 ---------------------------------------------------------------------
 Rotational constants (GHZ):           0.5052897           0.0306476           0.0290656
 Standard basis: 6-311+G(2d,p) (5D, 7F)
 There are  1007 symmetry adapted cartesian basis functions of A   symmetry.
 There are   949 symmetry adapted basis functions of A   symmetry.
   949 basis functions,  1446 primitive gaussians,  1007 cartesian basis functions
   110 alpha electrons      110 beta electrons
       nuclear repulsion energy      2585.8618479399 Hartrees.
 NAtoms=   54 NActive=   54 NUniq=   54 SFac= 1.00D+00 NAtFMM=   60 NAOKFM=F Big=F
 Integral buffers will be    131072 words long.
 Regular integral format.
 Two-electron integral symmetry is turned on.
 ------------------------------------------------------------------------------
 Polarizable Continuum Model (PCM)
 =================================
 Model                : PCM.
 Atomic radii         : SMD-Coulomb.
 Polarization charges : Total charges.
 Charge compensation  : None.
 Solution method      : On-the-fly selection.
 Cavity type          : VdW (van der Waals Surface) (Alpha=1.000).
 Cavity algorithm     : GePol (No added spheres)
                        Default sphere list used, NSphG=   54.
                        Lebedev-Laikov grids with approx.  5.0 points / Ang**2.
                        Smoothing algorithm: York/Karplus (Gamma=1.0000).
                        Polarization charges: spherical gaussians, with
                                              point-specific exponents (IZeta= 3).
                        Self-potential: point-specific (ISelfS= 7).
                        Self-field    : sphere-specific E.n sum rule (ISelfD= 2).
 Solvent              : Ethanol, Eps=  24.852000 Eps(inf)=   1.852593
 ------------------------------------------------------------------------------
 ------------------------------------------------------------------------------
 Atomic radii for non-electrostatic terms: SMD-CDS.
 ------------------------------------------------------------------------------
 Nuclear repulsion after PCM non-electrostatic terms =     2585.8550298034 Hartrees.
 One-electron integrals computed using PRISM.
 NBasis=   949 RedAO= T EigKep=  1.31D-06  NBF=   949
 NBsUse=   941 1.00D-06 EigRej=  9.64D-07 NBFU=   941
 ExpMin= 4.05D-02 ExpMax= 9.34D+04 ExpMxC= 3.17D+03 IAcc=3 IRadAn=         5 AccDes= 0.00D+00
 Harris functional with IExCor=  402 and IRadAn=       5 diagonalized for initial guess.
 HarFok:  IExCor=  402 AccDes= 0.00D+00 IRadAn=         5 IDoV= 1 UseB2=F ITyADJ=14
 ICtDFT=  3500011 ScaDFX=  1.000000  1.000000  1.000000  1.000000
 FoFCou: FMM=F IPFlag=           0 FMFlag=      100000 FMFlg1=           0
         NFxFlg=           0 DoJE=T BraDBF=F KetDBF=T FulRan=T
         wScrn=  0.000000 ICntrl=       500 IOpCl=  0 I1Cent=   200000004 NGrid=           0
         NMat0=    1 NMatS0=      1 NMatT0=    0 NMatD0=    1 NMtDS0=    0 NMtDT0=    0
 Petite list used in FoFCou.
 Requested convergence on RMS density matrix=1.00D-08 within 128 cycles.
 Requested convergence on MAX density matrix=1.00D-06.
 Requested convergence on             energy=1.00D-06.
 No special actions if energy rises.
 Inv3:  Mode=1 IEnd=    53425200.
 Iteration    1 A*A^-1 deviation from unit magnitude is 3.55D-15 for    321.
 Iteration    1 A*A^-1 deviation from orthogonality  is 2.08D-15 for   1735    753.
 Iteration    1 A^-1*A deviation from unit magnitude is 3.55D-15 for    321.
 Iteration    1 A^-1*A deviation from orthogonality  is 3.65D-15 for    636    388.
 Error on total polarization charges =  0.07549
 SCF Done:  E(RB3LYP) =  -1873.82454964     A.U. after   14 cycles
            NFock= 14  Conv=0.47D-08     -V/T= 2.0034
 SMD-CDS (non-electrostatic) energy       (kcal/mol) =      -4.28
 (included in total energy above)
 DoSCS=F DFT=T ScalE2(SS,OS)=  1.000000  1.000000
 ExpMin= 4.05D-02 ExpMax= 9.34D+04 ExpMxC= 3.17D+03 IAcc=3 IRadAn=         5 AccDes= 0.00D+00
 HarFok:  IExCor=  205 AccDes= 0.00D+00 IRadAn=         5 IDoV=-2 UseB2=F ITyADJ=14
 ICtDFT= 12500011 ScaDFX=  1.000000  1.000000  1.000000  1.000000
 GSVD:  LWork=       -1665 too small for GESVD, short by        7400 words or        7400 for optimal perf.
 Range of M.O.s used for correlation:    38   941
 NBasis=   949 NAE=   110 NBE=   110 NFC=    37 NFV=     0
 NROrb=    904 NOA=    73 NOB=    73 NVA=   831 NVB=   831

 **** Warning!!: The largest alpha MO coefficient is  0.10441133D+03


 **** Warning!!: The smallest alpha delta epsilon is  0.77206706D-01

 NEqPCM:  Using non-equilibrium solvation (IEInf=1, Eps=  24.8520, EpsInf=   1.8526)
 Inv3:  Mode=1 IEnd=    53425200.
 Iteration    1 A*A^-1 deviation from unit magnitude is 3.33D-15 for   3435.
 Iteration    1 A*A^-1 deviation from orthogonality  is 2.13D-15 for   2030   1791.
 Iteration    1 A^-1*A deviation from unit magnitude is 3.11D-15 for   3435.
 Iteration    1 A^-1*A deviation from orthogonality  is 2.48D-15 for   1749    718.
 Orbital symmetries:
       Occupied  (A) (A) (A) (A) (A) (A) (A) (A) (A) (A) (A) (A)
                 (A) (A) (A) (A) (A) (A) (A) (A) (A) (A) (A) (A)
                 (A) (A) (A) (A) (A) (A) (A) (A) (A) (A) (A) (A)
                 (A) (A) (A) (A) (A) (A) (A) (A) (A) (A) (A) (A)
                 (A) (A) (A) (A) (A) (A) (A) (A) (A) (A) (A) (A)
                 (A) (A) (A) (A) (A) (A) (A) (A) (A) (A) (A) (A)
                 (A) (A) (A) (A) (A) (A) (A) (A) (A) (A) (A) (A)
                 (A) (A) (A) (A) (A) (A) (A) (A) (A) (A) (A) (A)
                 (A) (A) (A) (A) (A) (A) (A) (A) (A) (A) (A) (A)
                 (A) (A)
       Virtual   (A) (A) (A) (A) (A) (A) (A) (A) (A) (A) (A) (A)
                 (A) (A) (A) (A) (A) (A) (A) (A) (A) (A) (A) (A)
                 (A) (A) (A) (A) (A) (A) (A) (A) (A) (A) (A) (A)
                 (A) (A) (A) (A) (A) (A) (A) (A) (A) (A) (A) (A)
                 (A) (A) (A) (A) (A) (A) (A) (A) (A) (A) (A) (A)
                 (A) (A) (A) (A) (A) (A) (A) (A) (A) (A) (A) (A)
                 (A) (A) (A) (A) (A) (A) (A) (A) (A) (A) (A) (A)
                 (A) (A) (A) (A) (A) (A) (A) (A) (A) (A) (A) (A)
                 (A) (A) (A) (A) (A) (A) (A) (A) (A) (A) (A) (A)
                 (A) (A) (A) (A) (A) (A) (A) (A) (A) (A) (A) (A)
                 (A) (A) (A) (A) (A) (A) (A) (A) (A) (A) (A) (A)
                 (A) (A) (A) (A) (A) (A) (A) (A) (A) (A) (A) (A)
                 (A) (A) (A) (A) (A) (A) (A) (A) (A) (A) (A) (A)
                 (A) (A) (A) (A) (A) (A) (A) (A) (A) (A) (A) (A)
                 (A) (A) (A) (A) (A) (A) (A) (A) (A) (A) (A) (A)
                 (A) (A) (A) (A) (A) (A) (A) (A) (A) (A) (A) (A)
                 (A) (A) (A) (A) (A) (A) (A) (A) (A) (A) (A) (A)
                 (A) (A) (A) (A) (A) (A) (A) (A) (A) (A) (A) (A)
                 (A) (A) (A) (A) (A) (A) (A) (A) (A) (A) (A) (A)
                 (A) (A) (A) (A) (A) (A) (A) (A) (A) (A) (A) (A)
                 (A) (A) (A) (A) (A) (A) (A) (A) (A) (A) (A) (A)
                 (A) (A) (A) (A) (A) (A) (A) (A) (A) (A) (A) (A)
                 (A) (A) (A) (A) (A) (A) (A) (A) (A) (A) (A) (A)
                 (A) (A) (A) (A) (A) (A) (A) (A) (A) (A) (A) (A)
                 (A) (A) (A) (A) (A) (A) (A) (A) (A) (A) (A) (A)
                 (A) (A) (A) (A) (A) (A) (A) (A) (A) (A) (A) (A)
                 (A) (A) (A) (A) (A) (A) (A) (A) (A) (A) (A) (A)
                 (A) (A) (A) (A) (A) (A) (A) (A) (A) (A) (A) (A)
                 (A) (A) (A) (A) (A) (A) (A) (A) (A) (A) (A) (A)
                 (A) (A) (A) (A) (A) (A) (A) (A) (A) (A) (A) (A)
                 (A) (A) (A) (A) (A) (A) (A) (A) (A) (A) (A) (A)
                 (A) (A) (A) (A) (A) (A) (A) (A) (A) (A) (A) (A)
                 (A) (A) (A) (A) (A) (A) (A) (A) (A) (A) (A) (A)
                 (A) (A) (A) (A) (A) (A) (A) (A) (A) (A) (A) (A)
                 (A) (A) (A) (A) (A) (A) (A) (A) (A) (A) (A) (A)
                 (A) (A) (A) (A) (A) (A) (A) (A) (A) (A) (A) (A)
                 (A) (A) (A) (A) (A) (A) (A) (A) (A) (A) (A) (A)
                 (A) (A) (A) (A) (A) (A) (A) (A) (A) (A) (A) (A)
                 (A) (A) (A) (A) (A) (A) (A) (A) (A) (A) (A) (A)
                 (A) (A) (A) (A) (A) (A) (A) (A) (A) (A) (A) (A)
                 (A) (A) (A) (A) (A) (A) (A) (A) (A) (A) (A) (A)
                 (A) (A) (A) (A) (A) (A) (A) (A) (A) (A) (A) (A)
                 (A) (A) (A) (A) (A) (A) (A) (A) (A) (A) (A) (A)
                 (A) (A) (A) (A) (A) (A) (A) (A) (A) (A) (A) (A)
                 (A) (A) (A) (A) (A) (A) (A) (A) (A) (A) (A) (A)
                 (A) (A) (A) (A) (A) (A) (A) (A) (A) (A) (A) (A)
                 (A) (A) (A) (A) (A) (A) (A) (A) (A) (A) (A) (A)
                 (A) (A) (A) (A) (A) (A) (A) (A) (A) (A) (A) (A)
                 (A) (A) (A) (A) (A) (A) (A) (A) (A) (A) (A) (A)
                 (A) (A) (A) (A) (A) (A) (A) (A) (A) (A) (A) (A)
                 (A) (A) (A) (A) (A) (A) (A) (A) (A) (A) (A) (A)
                 (A) (A) (A) (A) (A) (A) (A) (A) (A) (A) (A) (A)
                 (A) (A) (A) (A) (A) (A) (A) (A) (A) (A) (A) (A)
                 (A) (A) (A) (A) (A) (A) (A) (A) (A) (A) (A) (A)
                 (A) (A) (A) (A) (A) (A) (A) (A) (A) (A) (A) (A)
                 (A) (A) (A) (A) (A) (A) (A) (A) (A) (A) (A) (A)
                 (A) (A) (A) (A) (A) (A) (A) (A) (A) (A) (A) (A)
                 (A) (A) (A) (A) (A) (A) (A) (A) (A) (A) (A) (A)
                 (A) (A) (A) (A) (A) (A) (A) (A) (A) (A) (A) (A)
                 (A) (A) (A) (A) (A) (A) (A) (A) (A) (A) (A) (A)
                 (A) (A) (A) (A) (A) (A) (A) (A) (A) (A) (A) (A)
                 (A) (A) (A) (A) (A) (A) (A) (A) (A) (A) (A) (A)
                 (A) (A) (A) (A) (A) (A) (A) (A) (A) (A) (A) (A)
                 (A) (A) (A) (A) (A) (A) (A) (A) (A) (A) (A) (A)
                 (A) (A) (A) (A) (A) (A) (A) (A) (A) (A) (A) (A)
                 (A) (A) (A) (A) (A) (A) (A) (A) (A) (A) (A) (A)
                 (A) (A) (A) (A) (A) (A) (A) (A) (A) (A) (A) (A)
                 (A) (A) (A) (A) (A) (A) (A) (A) (A) (A) (A) (A)
                 (A) (A) (A) (A) (A) (A) (A) (A) (A) (A) (A) (A)
                 (A) (A) (A)
   600 initial guesses have been made.
 Convergence on wavefunction:    0.001000000000000
 Iteration     1 Dimension   600 NMult     0 NNew    600
 CISAX will form   224 AO SS matrices at one time.
 New state      3 was old state      4
 New state      4 was old state      5
 New state      5 was old state      6
 New state      6 was old state      7
 New state      7 was old state      9
 New state      8 was old state     11
 New state      9 was old state      3
 New state     10 was old state      8
 New state     11 was old state     10
 New state     13 was old state     14
 New state     14 was old state     16
 New state     15 was old state     17
 New state     16 was old state     15
 New state     17 was old state     13
 New state     19 was old state     20
 New state     20 was old state     22
 New state     22 was old state     23
 New state     23 was old state     19
 New state     24 was old state     26
 New state     25 was old state     31
 New state     26 was old state     29
 New state     27 was old state     28
 New state     28 was old state     36
 New state     29 was old state     30
 New state     30 was old state     25
 New state     31 was old state     32
 New state     32 was old state     33
 New state     33 was old state     27
 New state     34 was old state     35
 New state     35 was old state     51
 New state     36 was old state     38
 New state     37 was old state     39
 New state     38 was old state     58
 New state     39 was old state     40
 New state     40 was old state     54
 New state     41 was old state     45
 New state     42 was old state     37
 New state     43 was old state     46
 New state     44 was old state     47
 New state     45 was old state     48
 New state     46 was old state     41
 New state     47 was old state     56
 New state     48 was old state     50
 New state     49 was old state     44
 New state     50 was old state     43
 New state     51 was old state     68
 New state     52 was old state     83
 New state     53 was old state     57
 New state     54 was old state     42
 New state     55 was old state     59
 New state     56 was old state     63
 New state     57 was old state     64
 New state     58 was old state     77
 New state     59 was old state     69
 New state     60 was old state     61
 New state     61 was old state     66
 New state     62 was old state     49
 New state     63 was old state     52
 New state     64 was old state     72
 New state     65 was old state     62
 New state     66 was old state     74
 New state     67 was old state     70
 New state     68 was old state     87
 New state     69 was old state     86
 New state     70 was old state     79
 New state     71 was old state     78
 New state     72 was old state     76
 New state     73 was old state     60
 New state     74 was old state     73
 New state     76 was old state     65
 New state     77 was old state     81
 New state     78 was old state     67
 New state     79 was old state     89
 New state     81 was old state     53
 New state     82 was old state     91
 New state     83 was old state     92
 New state     85 was old state     88
 New state     86 was old state     93
 New state     87 was old state    100
 New state     88 was old state     96
 New state     89 was old state    104
 New state     90 was old state     94
 New state     91 was old state     95
 New state     92 was old state     97
 New state     93 was old state     99
 New state     94 was old state     98
 New state     95 was old state    101
 New state     96 was old state     82
 New state     97 was old state    105
 New state     98 was old state    120
 New state     99 was old state    103
 New state    100 was old state    106
 New state    101 was old state     85
 New state    102 was old state     90
 New state    103 was old state    102
 New state    104 was old state    109
 New state    105 was old state    121
 New state    106 was old state    110
 New state    107 was old state    125
 New state    108 was old state    114
 New state    109 was old state    115
 New state    110 was old state    108
 New state    111 was old state    119
 New state    112 was old state    130
 New state    113 was old state    118
 New state    114 was old state    113
 New state    115 was old state    116
 New state    116 was old state    117
 New state    117 was old state    135
 New state    118 was old state    126
 New state    119 was old state    111
 New state    120 was old state    107
 New state    121 was old state    129
 New state    122 was old state    131
 New state    124 was old state    140
 New state    125 was old state    134
 New state    126 was old state    127
 New state    127 was old state    141
 New state    129 was old state    124
 New state    130 was old state    192
 New state    131 was old state    138
 New state    132 was old state    150
 New state    133 was old state    155
 New state    134 was old state    159
 New state    135 was old state    139
 New state    136 was old state    177
 New state    137 was old state    151
 New state    138 was old state    149
 New state    139 was old state    206
 New state    140 was old state    146
 New state    141 was old state    148
 New state    142 was old state    122
 New state    143 was old state    144
 New state    144 was old state    154
 New state    145 was old state    143
 New state    146 was old state    160
 New state    147 was old state    167
 New state    148 was old state    152
 New state    149 was old state    170
 New state    150 was old state    137
 Iteration     2 Dimension   900 NMult   600 NNew    300
 New state      5 was old state      8
 New state      7 was old state      5
 New state      8 was old state      7
 New state     16 was old state     17
 New state     17 was old state     16
 New state     19 was old state     20
 New state     20 was old state     19
 New state     26 was old state     27
 New state     27 was old state     32
 New state     29 was old state     26
 New state     31 was old state     29
 New state     32 was old state     33
 New state     33 was old state     31
 New state     36 was old state     40
 New state     37 was old state     39
 New state     38 was old state     36
 New state     39 was old state     37
 New state     40 was old state     38
 New state     41 was old state     43
 New state     43 was old state     41
 New state     44 was old state     48
 New state     45 was old state     47
 New state     46 was old state     54
 New state     47 was old state     44
 New state     48 was old state     45
 New state     49 was old state     46
 New state     50 was old state     55
 New state     51 was old state     50
 New state     52 was old state     49
 No map to state     53
 New state     54 was old state     51
 New state     55 was old state     52
 New state     56 was old state     53
 New state     59 was old state     56
 New state     60 was old state     59
 New state     63 was old state     64
 New state     64 was old state     63
 New state     65 was old state     71
 New state     66 was old state     67
 New state     67 was old state     65
 New state     68 was old state     66
 New state     70 was old state     68
 New state     71 was old state     78
 New state     72 was old state     70
 New state     73 was old state     74
 New state     74 was old state     72
 New state     75 was old state     83
 New state     76 was old state     75
 New state     77 was old state     73
 New state     78 was old state     76
 New state     79 was old state     77
 New state     80 was old state     82
 New state     81 was old state     80
 New state     82 was old state     79
 New state     83 was old state     81
 New state     84 was old state     85
 New state     85 was old state     92
 New state     86 was old state     84
 New state     87 was old state     86
 New state     88 was old state     87
 New state     89 was old state     96
 New state     90 was old state     88
 New state     91 was old state     89
 New state     92 was old state     91
 New state     93 was old state     90
 New state     94 was old state     93
 New state     96 was old state     94
 New state     97 was old state     99
 New state     98 was old state    105
 New state     99 was old state     98
 New state    100 was old state     97
 New state    101 was old state    100
 New state    102 was old state    111
 New state    103 was old state    101
 New state    105 was old state    102
 New state    106 was old state    103
 New state    107 was old state    114
 New state    108 was old state    106
 New state    109 was old state    107
 New state    110 was old state    108
 New state    111 was old state    112
 New state    112 was old state    110
 New state    113 was old state    109
 New state    114 was old state    113
 New state    115 was old state    118
 New state    116 was old state    117
 New state    117 was old state    115
 New state    118 was old state    116
 New state    119 was old state    124
 New state    120 was old state    119
 New state    121 was old state    126
 New state    122 was old state    120
 New state    124 was old state    127
 New state    125 was old state    121
 New state    126 was old state    122
 New state    127 was old state    141
 New state    128 was old state    125
 New state    129 was old state    128
 New state    130 was old state    129
 New state    132 was old state    134
 New state    133 was old state    130
 New state    134 was old state    137
 New state    135 was old state    132
 New state    137 was old state    154
 New state    138 was old state    133
 New state    139 was old state    135
 New state    140 was old state    139
 No map to state    141
 New state    142 was old state    138
 New state    143 was old state    140
 New state    144 was old state    142
 New state    145 was old state    144
 New state    146 was old state    145
 New state    147 was old state    143
 New state    148 was old state    146
 New state    149 was old state    148
 New state    150 was old state    149
 Iteration     3 Dimension  1200 NMult   900 NNew    300
 Iteration     4 Dimension  1492 NMult  1200 NNew    292
 Iteration     5 Dimension  1600 NMult  1492 NNew    108
 ***********************************************************************
 Excited states from <AA,BB:AA,BB> singles matrix:
 ***********************************************************************
 
 Ground to excited state transition densities written to RWF  633
 Ground to excited state transition electric dipole moments (Au):
       state          X           Y           Z        Dip. S.      Osc.
         1         7.5538     -0.1958      0.0444     57.1001      2.8077
         2         0.2946      0.0465      0.0028      0.0890      0.0069
         3        -0.3368     -0.6597      0.0040      0.5486      0.0480
         4        -0.1390      0.2847      0.0636      0.1044      0.0092
         5        -0.2027     -0.9432     -0.0012      0.9307      0.0827
         6         0.7119      0.0654      0.0304      0.5120      0.0472
         7         0.0824      0.4379      0.1247      0.2141      0.0198
         8         0.0160     -0.0523      0.0105      0.0031      0.0003
         9        -0.0421     -0.0235      0.0201      0.0027      0.0003
        10         0.1308     -0.2465     -0.0152      0.0781      0.0076
        11         0.0841     -0.3615     -0.0507      0.1403      0.0142
        12         0.1522     -0.0256     -0.0167      0.0241      0.0025
        13        -0.0248     -0.0368      0.0171      0.0023      0.0003
        14         0.0303     -0.1010     -0.0011      0.0111      0.0013
        15         0.1234      0.0897      0.0607      0.0270      0.0031
        16        -0.1191     -0.0541     -0.0354      0.0184      0.0021
        17        -0.3206     -0.0007      0.0704      0.1077      0.0125
        18        -0.0542     -0.0156     -0.0118      0.0033      0.0004
        19        -0.0483     -0.0425      0.0321      0.0052      0.0006
        20         0.1321      0.0822      0.0629      0.0282      0.0035
        21         0.1090      0.0200      0.0270      0.0130      0.0016
        22        -0.1477     -0.1907     -0.1014      0.0685      0.0085
        23         0.1770      0.0452     -0.0288      0.0342      0.0043
        24         0.2437     -0.0318      0.0336      0.0615      0.0078
        25         0.0551     -0.0137     -0.0259      0.0039      0.0005
        26        -0.0521     -0.0668     -0.0014      0.0072      0.0009
        27        -0.3356     -0.4630     -0.0451      0.3291      0.0425
        28        -0.5375      0.0084      0.0342      0.2901      0.0375
        29        -0.2395      0.0946      0.1251      0.0820      0.0106
        30        -0.3053     -0.1297     -0.0707      0.1150      0.0149
        31         0.0167     -0.4066     -0.1543      0.1894      0.0246
        32        -0.0283     -0.4709     -0.0144      0.2228      0.0290
        33        -0.0281     -0.1573      0.0308      0.0265      0.0035
        34        -0.0189      0.0238      0.0764      0.0068      0.0009
        35        -0.2459      0.4296      0.0874      0.2527      0.0337
        36         0.1459     -0.4128      0.0160      0.1920      0.0256
        37        -0.2139     -0.1912     -0.0373      0.0837      0.0112
        38        -0.1284      0.0451      0.1292      0.0352      0.0048
        39        -0.2939      0.0733     -0.0540      0.0946      0.0128
        40         0.0230      0.0046      0.0444      0.0025      0.0003
        41         1.1517     -0.0439     -0.0348      1.3296      0.1813
        42        -0.3031     -0.2844      0.0519      0.1755      0.0240
        43         0.1428     -0.0179      0.0448      0.0227      0.0032
        44        -0.6062      0.1236      0.0349      0.3840      0.0538
        45         0.6380     -0.6168     -0.0789      0.7938      0.1120
        46        -0.2153     -0.4137      0.0212      0.2180      0.0308
        47         0.3976     -0.0985      0.0242      0.1684      0.0240
        48         0.0137      0.1431      0.0384      0.0221      0.0032
        49        -0.0446      0.2720      0.0185      0.0763      0.0110
        50        -0.1758     -0.4200      0.0402      0.2089      0.0301
        51         0.0620      0.0356      0.0122      0.0053      0.0008
        52         0.2475      0.0553     -0.1112      0.0767      0.0111
        53        -0.0283      0.0265      0.0014      0.0015      0.0002
        54         0.0391     -0.0044     -0.0169      0.0018      0.0003
        55         0.0359     -0.0061      0.0032      0.0013      0.0002
        56         0.0019     -0.0498      0.0240      0.0031      0.0004
        57        -0.0971      0.0777     -0.0079      0.0155      0.0023
        58        -0.0264      0.0556     -0.0376      0.0052      0.0008
        59        -0.1639      0.0272     -0.0778      0.0336      0.0050
        60         0.0098     -0.0352      0.0101      0.0014      0.0002
        61        -0.0065     -0.1973      0.0518      0.0416      0.0063
        62        -0.1812     -0.1840     -0.0618      0.0705      0.0106
        63        -0.2046      0.0132     -0.0196      0.0424      0.0064
        64        -0.1895     -0.2981     -0.0292      0.1256      0.0190
        65         0.5725      0.5750      0.0360      0.6596      0.1001
        66        -1.1383     -0.4881     -0.0458      1.5361      0.2334
        67        -0.3124      0.3094     -0.0237      0.1939      0.0296
        68        -0.0592      0.4205      0.0998      0.1903      0.0291
        69        -0.0509     -0.1374      0.0036      0.0215      0.0033
        70        -0.5067     -0.0421      0.1339      0.2765      0.0424
        71         0.3494      0.2237      0.2559      0.2376      0.0365
        72        -0.0243     -0.0329     -0.0806      0.0082      0.0013
        73         0.1508     -0.3825     -0.0394      0.1706      0.0263
        74         0.5030      0.0224     -0.0013      0.2535      0.0392
        75         0.6214     -0.0731      0.0958      0.4007      0.0621
        76        -0.0553      0.0257      0.0906      0.0119      0.0019
        77         0.0399     -0.0263      0.0293      0.0031      0.0005
        78         0.4018      0.1153      0.1050      0.1857      0.0288
        79        -0.1367      0.1699     -0.1421      0.0678      0.0106
        80         0.2335      0.2678      0.0912      0.1345      0.0210
        81        -0.0413     -0.0309      0.0586      0.0061      0.0010
        82        -0.1086      0.1471     -0.0056      0.0335      0.0053
        83         0.2616     -0.4048     -0.1011      0.2425      0.0382
        84        -0.5242      0.0703     -0.0162      0.2800      0.0442
        85        -0.7104      0.4132      0.0484      0.6777      0.1075
        86         0.0532     -0.1076     -0.0729      0.0197      0.0031
        87        -0.0717     -0.0599      0.0099      0.0088      0.0014
        88         0.0365     -0.1511      0.0670      0.0287      0.0046
        89        -0.1216     -0.3865      0.0304      0.1651      0.0267
        90        -0.1026      0.1866      0.0044      0.0453      0.0073
        91        -0.0787     -0.1247     -0.0032      0.0218      0.0035
        92        -0.0094      0.1789      0.0280      0.0329      0.0053
        93         0.0400      0.0220     -0.0495      0.0045      0.0007
        94         0.0246      0.1236      0.0478      0.0182      0.0030
        95         0.0995     -0.0199     -0.0632      0.0143      0.0023
        96         0.0028     -0.1285     -0.1501      0.0391      0.0064
        97         0.2883      0.3917      0.0132      0.2367      0.0389
        98        -0.5234     -0.4478     -0.0693      0.4792      0.0790
        99         0.6334     -0.1121      0.0074      0.4138      0.0683
       100        -0.0853      0.0594      0.1928      0.0480      0.0079
       101         0.1757     -0.1084     -0.0786      0.0488      0.0081
       102        -0.2705     -0.1187     -0.0926      0.0959      0.0159
       103        -0.0919      0.0699     -0.0682      0.0180      0.0030
       104         0.0378      0.0140     -0.0431      0.0035      0.0006
       105         0.0795     -0.0358     -0.0363      0.0089      0.0015
       106         0.0313     -0.0965     -0.0395      0.0119      0.0020
       107         0.0003      0.0153      0.1428      0.0206      0.0034
       108        -0.0991      0.0201      0.0182      0.0106      0.0018
       109        -0.0650      0.0634     -0.0445      0.0102      0.0017
       110         0.1753      0.0602     -0.0853      0.0416      0.0070
       111        -0.0385      0.0253      0.1030      0.0127      0.0021
       112        -0.1874      0.0369     -0.1157      0.0499      0.0084
       113         0.0680      0.0208      0.0410      0.0067      0.0011
       114        -0.1001      0.0468     -0.0433      0.0141      0.0024
       115         0.0760     -0.0658     -0.0455      0.0122      0.0021
       116        -0.0153      0.0002      0.0365      0.0016      0.0003
       117        -0.0049      0.0279     -0.0184      0.0011      0.0002
       118        -0.0475     -0.0725     -0.2328      0.0617      0.0104
       119         0.0332      0.0792      0.0104      0.0075      0.0013
       120        -0.0895      0.0856     -0.0436      0.0172      0.0029
       121         0.1560      0.1446      0.0199      0.0456      0.0078
       122         0.0218      0.0794     -0.0314      0.0078      0.0013
       123         0.1956     -0.0263      0.0397      0.0405      0.0069
       124         0.0968      0.0372      0.1194      0.0250      0.0043
       125        -0.1247     -0.0372     -0.0926      0.0255      0.0044
       126         0.0927      0.0391      0.0361      0.0114      0.0020
       127         0.0318      0.1153      0.0215      0.0148      0.0025
       128        -0.0948      0.0486      0.0628      0.0153      0.0026
       129         0.0589     -0.0106     -0.1497      0.0260      0.0045
       130         0.0561     -0.0751      0.0570      0.0120      0.0021
       131        -0.0603     -0.0327     -0.0401      0.0063      0.0011
       132        -0.0768     -0.0967     -0.0158      0.0155      0.0027
       133        -0.0439      0.0417      0.1044      0.0146      0.0025
       134         0.0606     -0.1396      0.0334      0.0243      0.0042
       135        -0.0903     -0.0718      0.0977      0.0229      0.0040
       136        -0.2574      0.2460     -0.0148      0.1270      0.0222
       137         0.2789     -0.4092      0.0209      0.2457      0.0429
       138        -0.3873      0.1056      0.0537      0.1640      0.0287
       139         0.0216     -0.0319     -0.0051      0.0015      0.0003
       140         0.0739     -0.2977     -0.1571      0.1187      0.0208
       141        -0.0852      0.0842      0.0648      0.0186      0.0033
       142         0.0512      0.0856     -0.0535      0.0128      0.0023
       143        -0.1344      0.0354     -0.0040      0.0193      0.0034
       144         0.0618     -0.1848     -0.0308      0.0389      0.0069
       145        -0.0807      0.0498      0.0940      0.0178      0.0032
       146        -0.1613      0.0755      0.0133      0.0319      0.0057
       147         0.0116      0.0849     -0.2178      0.0548      0.0097
       148         0.0018      0.0993      0.0374      0.0113      0.0020
       149         0.2256     -0.0829     -0.0602      0.0614      0.0109
       150         0.2960      0.0478     -0.1178      0.1038      0.0185
 Ground to excited state transition velocity dipole moments (Au):
       state          X           Y           Z        Dip. S.      Osc.
         1        -0.5579      0.0152     -0.0031      0.3115      2.8156
         2        -0.0342     -0.0046     -0.0003      0.0012      0.0068
         3         0.0443      0.0876     -0.0006      0.0096      0.0489
         4         0.0185     -0.0383     -0.0084      0.0019      0.0095
         5         0.0271      0.1265      0.0001      0.0167      0.0837
         6        -0.0985     -0.0104     -0.0043      0.0098      0.0474
         7        -0.0111     -0.0615     -0.0178      0.0042      0.0203
         8        -0.0028      0.0077     -0.0020      0.0001      0.0003
         9         0.0060      0.0036     -0.0035      0.0001      0.0003
        10        -0.0199      0.0365      0.0021      0.0017      0.0079
        11        -0.0135      0.0563      0.0076      0.0034      0.0150
        12        -0.0240      0.0037      0.0027      0.0006      0.0025
        13         0.0042      0.0053     -0.0025      0.0001      0.0002
        14        -0.0050      0.0180     -0.0041      0.0004      0.0014
        15        -0.0209     -0.0158     -0.0114      0.0008      0.0032
        16         0.0200      0.0098      0.0070      0.0005      0.0021
        17         0.0556      0.0011     -0.0125      0.0033      0.0124
        18         0.0102      0.0028      0.0019      0.0001      0.0004
        19         0.0082      0.0094     -0.0054      0.0002      0.0007
        20        -0.0243     -0.0156     -0.0114      0.0010      0.0035
        21        -0.0212     -0.0029     -0.0043      0.0005      0.0017
        22         0.0272      0.0357      0.0185      0.0024      0.0084
        23        -0.0335     -0.0089      0.0037      0.0012      0.0043
        24        -0.0457      0.0053     -0.0064      0.0022      0.0076
        25        -0.0109      0.0032      0.0039      0.0001      0.0005
        26         0.0088      0.0141      0.0003      0.0003      0.0010
        27         0.0649      0.0913      0.0085      0.0126      0.0434
        28         0.1041     -0.0010     -0.0065      0.0109      0.0373
        29         0.0462     -0.0188     -0.0239      0.0031      0.0105
        30         0.0599      0.0256      0.0135      0.0044      0.0151
        31        -0.0027      0.0803      0.0323      0.0075      0.0256
        32         0.0048      0.0927      0.0016      0.0086      0.0294
        33         0.0045      0.0297     -0.0046      0.0009      0.0031
        34         0.0033     -0.0050     -0.0139      0.0002      0.0008
        35         0.0487     -0.0855     -0.0183      0.0100      0.0334
        36        -0.0294      0.0834     -0.0033      0.0078      0.0261
        37         0.0423      0.0385      0.0078      0.0033      0.0110
        38         0.0261     -0.0097     -0.0240      0.0014      0.0044
        39         0.0601     -0.0145      0.0111      0.0039      0.0129
        40        -0.0047     -0.0015     -0.0064      0.0001      0.0002
        41        -0.2366      0.0097      0.0077      0.0561      0.1830
        42         0.0625      0.0592     -0.0103      0.0075      0.0244
        43        -0.0295      0.0042     -0.0086      0.0010      0.0031
        44         0.1286     -0.0269     -0.0079      0.0173      0.0550
        45        -0.1360      0.1323      0.0166      0.0363      0.1142
        46         0.0463      0.0887     -0.0045      0.0100      0.0315
        47        -0.0849      0.0210     -0.0052      0.0077      0.0240
        48        -0.0036     -0.0318     -0.0093      0.0011      0.0035
        49         0.0093     -0.0579     -0.0037      0.0035      0.0107
        50         0.0371      0.0916     -0.0088      0.0098      0.0303
        51        -0.0134     -0.0078     -0.0027      0.0002      0.0008
        52        -0.0533     -0.0129      0.0241      0.0036      0.0110
        53         0.0061     -0.0057     -0.0002      0.0001      0.0002
        54        -0.0092      0.0007      0.0054      0.0001      0.0003
        55        -0.0081      0.0012     -0.0002      0.0001      0.0002
        56        -0.0004      0.0117     -0.0056      0.0002      0.0005
        57         0.0190     -0.0172      0.0005      0.0007      0.0020
        58         0.0049     -0.0123      0.0091      0.0003      0.0008
        59         0.0347     -0.0057      0.0183      0.0016      0.0047
        60        -0.0032      0.0082     -0.0004      0.0001      0.0002
        61         0.0027      0.0448     -0.0120      0.0022      0.0064
        62         0.0407      0.0409      0.0150      0.0036      0.0105
        63         0.0466     -0.0024      0.0044      0.0022      0.0064
        64         0.0429      0.0680      0.0068      0.0065      0.0191
        65        -0.1299     -0.1316     -0.0074      0.0343      0.1003
        66         0.2600      0.1131      0.0098      0.0805      0.2354
        67         0.0716     -0.0709      0.0061      0.0102      0.0297
        68         0.0143     -0.0962     -0.0244      0.0101      0.0292
        69         0.0118      0.0330     -0.0021      0.0012      0.0036
        70         0.1160      0.0108     -0.0330      0.0147      0.0425
        71        -0.0809     -0.0514     -0.0622      0.0131      0.0378
        72         0.0055      0.0076      0.0213      0.0005      0.0016
        73        -0.0350      0.0877      0.0090      0.0090      0.0260
        74        -0.1165     -0.0060     -0.0008      0.0136      0.0391
        75        -0.1444      0.0176     -0.0230      0.0217      0.0623
        76         0.0140     -0.0065     -0.0203      0.0007      0.0019
        77        -0.0092      0.0063     -0.0070      0.0002      0.0005
        78        -0.0932     -0.0264     -0.0252      0.0100      0.0287
        79         0.0315     -0.0394      0.0333      0.0036      0.0104
        80        -0.0542     -0.0626     -0.0221      0.0073      0.0209
        81         0.0094      0.0075     -0.0140      0.0003      0.0010
        82         0.0252     -0.0350      0.0016      0.0019      0.0053
        83        -0.0614      0.0962      0.0248      0.0136      0.0384
        84         0.1265     -0.0174      0.0040      0.0163      0.0460
        85         0.1686     -0.0978     -0.0106      0.0381      0.1069
        86        -0.0128      0.0251      0.0189      0.0011      0.0032
        87         0.0172      0.0164     -0.0047      0.0006      0.0016
        88        -0.0096      0.0371     -0.0173      0.0018      0.0049
        89         0.0283      0.0941     -0.0071      0.0097      0.0267
        90         0.0239     -0.0455     -0.0022      0.0026      0.0073
        91         0.0197      0.0303     -0.0010      0.0013      0.0036
        92         0.0021     -0.0440     -0.0051      0.0020      0.0054
        93        -0.0087     -0.0065      0.0143      0.0003      0.0009
        94        -0.0051     -0.0310     -0.0101      0.0011      0.0030
        95        -0.0230      0.0038      0.0152      0.0008      0.0021
        96        -0.0001      0.0308      0.0361      0.0023      0.0061
        97        -0.0698     -0.0971     -0.0025      0.0143      0.0387
        98         0.1298      0.1113      0.0180      0.0296      0.0797
        99        -0.1568      0.0277     -0.0016      0.0254      0.0684
       100         0.0207     -0.0160     -0.0462      0.0028      0.0076
       101        -0.0443      0.0272      0.0186      0.0031      0.0082
       102         0.0679      0.0296      0.0230      0.0060      0.0162
       103         0.0216     -0.0176      0.0163      0.0010      0.0028
       104        -0.0076     -0.0044      0.0107      0.0002      0.0005
       105        -0.0205      0.0092      0.0096      0.0006      0.0016
       106        -0.0080      0.0246      0.0097      0.0008      0.0020
       107         0.0005     -0.0033     -0.0358      0.0013      0.0034
       108         0.0248     -0.0054     -0.0053      0.0007      0.0018
       109         0.0148     -0.0161      0.0105      0.0006      0.0016
       110        -0.0451     -0.0152      0.0215      0.0027      0.0072
       111         0.0090     -0.0060     -0.0260      0.0008      0.0021
       112         0.0459     -0.0117      0.0292      0.0031      0.0082
       113        -0.0173     -0.0052     -0.0097      0.0004      0.0011
       114         0.0248     -0.0121      0.0112      0.0009      0.0023
       115        -0.0193      0.0153      0.0117      0.0007      0.0020
       116         0.0021     -0.0009     -0.0091      0.0001      0.0002
       117         0.0015     -0.0059      0.0025      0.0000      0.0001
       118         0.0126      0.0176      0.0594      0.0040      0.0105
       119        -0.0084     -0.0203     -0.0012      0.0005      0.0013
       120         0.0222     -0.0213      0.0108      0.0011      0.0028
       121        -0.0413     -0.0374     -0.0055      0.0031      0.0082
       122        -0.0048     -0.0205      0.0080      0.0005      0.0013
       123        -0.0501      0.0073     -0.0101      0.0027      0.0069
       124        -0.0252     -0.0085     -0.0313      0.0017      0.0044
       125         0.0324      0.0095      0.0221      0.0016      0.0042
       126        -0.0237     -0.0099     -0.0090      0.0007      0.0019
       127        -0.0085     -0.0294     -0.0051      0.0010      0.0025
       128         0.0247     -0.0126     -0.0155      0.0010      0.0026
       129        -0.0154      0.0020      0.0384      0.0017      0.0044
       130        -0.0146      0.0194     -0.0140      0.0008      0.0020
       131         0.0161      0.0081      0.0103      0.0004      0.0011
       132         0.0189      0.0255      0.0046      0.0010      0.0026
       133         0.0109     -0.0095     -0.0267      0.0009      0.0024
       134        -0.0150      0.0373     -0.0085      0.0017      0.0043
       135         0.0227      0.0173     -0.0269      0.0015      0.0039
       136         0.0675     -0.0638      0.0051      0.0087      0.0220
       137        -0.0734      0.1079     -0.0055      0.0171      0.0434
       138         0.1005     -0.0255     -0.0130      0.0109      0.0277
       139        -0.0055      0.0087      0.0000      0.0001      0.0003
       140        -0.0211      0.0758      0.0405      0.0078      0.0198
       141         0.0220     -0.0218     -0.0175      0.0013      0.0032
       142        -0.0138     -0.0219      0.0143      0.0009      0.0022
       143         0.0357     -0.0085      0.0013      0.0013      0.0034
       144        -0.0173      0.0473      0.0086      0.0026      0.0066
       145         0.0218     -0.0136     -0.0264      0.0014      0.0034
       146         0.0425     -0.0192     -0.0026      0.0022      0.0055
       147        -0.0029     -0.0223      0.0579      0.0039      0.0097
       148        -0.0000     -0.0274     -0.0091      0.0008      0.0021
       149        -0.0596      0.0219      0.0158      0.0043      0.0107
       150        -0.0766     -0.0125      0.0329      0.0071      0.0177
 Ground to excited state transition magnetic dipole moments (Au):
       state          X           Y           Z
         1         0.0424      0.0821     -1.6278
         2         0.0125     -0.0108     -0.0455
         3         0.0107      0.0060     -0.3734
         4         0.0669      0.0266     -0.0662
         5        -0.0341      0.1330     -0.5724
         6        -0.0031      0.0161      0.6675
         7        -0.0322      0.2771     -1.5275
         8         0.0259     -0.2168      0.4710
         9         0.1258      0.0433     -0.0446
        10         0.0102     -0.0937      0.1343
        11         0.0442     -0.1803     -0.1489
        12        -0.0091     -0.0985      1.4678
        13        -0.2336     -0.0994     -0.0373
        14        -0.1205      0.0960     -0.0166
        15         0.0156      0.0496     -0.0632
        16         0.0768      0.0223     -0.3361
        17         0.0627     -0.0979     -0.2251
        18        -0.1133     -0.2450     -0.0139
        19         0.0340      0.0139     -0.4018
        20        -0.0852     -0.3636      0.5584
        21         0.1421     -0.0130      0.6368
        22        -0.0093     -0.0109     -0.2391
        23        -0.0426     -0.1164     -0.0058
        24        -0.0811      0.2605     -0.0473
        25        -0.0147     -0.1809     -0.2416
        26         0.0096     -0.2765      0.7474
        27         0.1135     -0.0732     -0.8856
        28        -0.0226      0.1063     -0.8729
        29        -0.0578     -0.1329      0.0517
        30         0.0436      0.0593      0.9021
        31        -0.0852     -0.3789      0.6480
        32         0.0337     -0.2142      0.5412
        33        -0.1449      0.4169     -0.2126
        34         0.0718     -0.2436     -0.6267
        35         0.0649      0.4810     -1.0901
        36        -0.0160      0.2325      0.8455
        37        -0.0317     -0.1036      1.0673
        38        -0.1692     -0.3088      0.0702
        39         0.0629     -0.1844      0.3075
        40         0.2387      0.2503     -0.0377
        41         0.0334      0.0418     -1.5444
        42         0.0052      0.2116     -1.4170
        43        -0.0012      0.1247     -0.1523
        44        -0.0902      0.3347     -0.4174
        45         0.0520     -0.2933     -0.9258
        46        -0.0637      0.3689     -3.1025
        47         0.0021      0.0994     -0.9130
        48        -0.1356     -0.1126      0.2658
        49         0.0481     -0.1714      0.7337
        50         0.0939     -0.0089     -1.5395
        51        -0.0169      0.0496     -0.2789
        52         0.0101     -0.0391      0.5389
        53         0.0096      0.0004     -0.0297
        54         0.0989     -0.0806     -0.0850
        55        -0.0276     -0.0189     -0.0003
        56         0.1892      0.4709     -0.2522
        57        -0.0529      0.0004      0.3191
        58        -0.1295      0.2173      0.2224
        59         0.0826      0.1465      0.5218
        60        -0.0107      0.1342      0.0904
        61        -0.0019      0.2284      0.7769
        62         0.0768     -0.2888      0.5278
        63        -0.1344      0.0133     -0.1904
        64        -0.1341     -0.1643      1.0923
        65         0.2082      0.2269     -1.8492
        66         0.1751     -0.3308      1.0707
        67        -0.1567      0.1581     -1.2777
        68         0.0035     -0.2852     -1.2309
        69        -0.0049     -0.0725      0.7978
        70         0.1032     -0.2559      0.8068
        71        -0.0724      0.4496     -0.8476
        72        -0.0008      0.2474      0.0742
        73         0.2579     -0.5893      1.2490
        74         0.0883      0.4017     -0.2770
        75        -0.0392     -0.4435      0.2822
        76        -0.0384     -0.2395     -0.7148
        77         0.0430     -0.1236     -0.0187
        78         0.1252     -0.0304     -0.7024
        79         0.1022      0.1268     -0.4635
        80        -0.0480      0.2217     -1.0005
        81        -0.0363     -0.1769      0.1469
        82        -0.0415      0.2111     -0.3914
        83        -0.0067      0.0148      0.6171
        84        -0.0659      0.2825      0.4633
        85         0.0368      0.1735      0.2310
        86         0.0716     -0.9727      0.0369
        87         0.1242     -0.4216     -0.0981
        88         0.1878      0.2539     -0.2180
        89        -0.1030      0.3124     -1.8292
        90        -0.2228      0.0881      0.8967
        91         0.1116      0.3181     -0.2815
        92         0.1365      0.1257      0.6263
        93        -0.0590      0.1019      0.1024
        94        -0.4561      0.1264     -0.2563
        95        -0.0381     -0.3080     -0.0685
        96         0.0859      0.6569      0.0228
        97        -0.0067      0.3173     -1.0752
        98         0.0910     -0.3195      2.1484
        99         0.1592      0.0178      1.0161
       100        -0.1247      0.2277     -0.4068
       101         0.0072     -0.1354      0.3670
       102         0.3039      0.1395     -0.6825
       103         0.1292      0.1734     -0.3211
       104         0.1484      0.1510      0.1092
       105         0.0856     -0.1378     -0.0034
       106        -0.1619     -0.5285      0.2011
       107         0.2102      0.2265     -0.2398
       108        -0.1432      0.0853      0.2343
       109         0.0598     -0.1386      0.2336
       110        -0.2097      0.0318     -0.6180
       111         0.0200      0.3959      0.0276
       112         0.0676      0.7385     -0.1220
       113        -0.0260      0.2622     -0.1598
       114        -0.0316      0.0141     -0.4356
       115         0.0695     -0.0246      0.6090
       116         0.0248     -0.0485      0.0865
       117         0.0168      0.6472     -0.3373
       118         0.1068     -0.4268      0.7295
       119        -0.0074      0.2351     -0.9435
       120         0.0741     -0.0813     -0.3313
       121        -0.0136      0.2891      0.2169
       122         0.0202      0.0620     -0.0199
       123         0.0258      0.2745      0.2957
       124         0.0637      0.0741      0.1612
       125         0.0895      0.4288     -0.1445
       126        -0.1720     -0.2961      0.0046
       127        -0.0221     -0.1088      0.1141
       128         0.0015      0.3373      0.3964
       129         0.0225     -0.2016      0.2134
       130        -0.0877      0.2432     -0.0965
       131        -0.1261     -0.1575     -0.6260
       132         0.0058     -0.1053      0.8466
       133         0.0207      0.6973      0.0393
       134         0.0245     -0.0415     -0.7173
       135         0.0904     -0.2349     -0.5081
       136         0.0616      0.1669      0.2538
       137         0.0548     -0.3248     -0.7270
       138        -0.1357      0.0561     -0.2529
       139        -0.0925     -0.0329      0.4698
       140        -0.1220      0.5516     -0.8517
       141        -0.1253      0.1720      0.2875
       142         0.2152     -0.3890      0.8196
       143        -0.1202     -0.1749     -0.3845
       144         0.1767     -0.1424     -0.1769
       145         0.1283      0.3632     -0.4383
       146         0.2377      1.2623     -0.8810
       147         0.0819      0.3538      0.8979
       148         0.0321     -0.0286      0.0853
       149        -0.1390      0.6198      1.3634
       150        -0.1360     -0.1900      1.5225
 Ground to excited state transition velocity quadrupole moments (Au):
       state          XX          YY          ZZ          XY          XZ          YZ
         1        -0.2254      0.0502     -0.0004     -0.2109      0.0372     -0.0448
         2        -2.4077     -0.1915     -0.0078      0.1062     -0.0053     -0.0081
         3         2.5958      0.0776      0.0200     -0.5499      0.0130      0.0134
         4         0.2961      0.0265      0.0016     -0.4080     -0.0952      0.0124
         5         8.4659      0.3478      0.0473     -0.3799      0.0029      0.0170
         6         3.7096     -0.0122     -0.0067      0.0103      0.0324      0.0075
         7        -0.5892      0.0554      0.0107     -1.0878     -0.2506      0.0073
         8        -0.7825     -0.0576     -0.0024      0.4438     -0.0339      0.0048
         9        -0.3775     -0.0071     -0.0050     -0.0294      0.0808     -0.0432
        10         0.4813      0.0344      0.0059      0.2918      0.0367      0.0037
        11        -0.4384      0.1432      0.0090     -0.7483      0.0741      0.0105
        12         1.1375      0.0837      0.0416      0.8313      0.0420      0.0174
        13         0.2901     -0.0326     -0.0709     -0.1046      0.0729     -0.1521
        14        -0.1888     -0.0683      0.0404     -0.0599     -0.0818     -0.0713
        15        -0.4663     -0.2168     -0.0021      0.3945     -0.0231     -0.0153
        16        -2.2676     -0.2098     -0.0366     -0.3483     -0.0190      0.0184
        17        -0.3530      0.0649      0.0084     -0.5117      0.0725     -0.0057
        18         0.1589     -0.0440     -0.0177     -0.1526      0.1421     -0.0606
        19        -0.2492      0.0866     -0.0047     -0.0610     -0.0216      0.0360
        20        -1.0121      0.1825      0.0104      0.4929      0.3074     -0.0391
        21        -0.0260     -0.0985      0.0100      0.4986     -0.0414      0.1005
        22        -0.6598      0.0984     -0.0128     -0.4189      0.0045     -0.0626
        23        -0.1088      0.0285     -0.0024      0.0264      0.0605     -0.0170
        24         0.7275      0.0013     -0.0566     -0.0001     -0.1760     -0.0897
        25        -0.5346     -0.0168     -0.0117     -0.1113     -0.0879     -0.0346
        26        -0.1984     -0.0794     -0.0180      0.9517      0.2898     -0.0007
        27        -0.2653     -0.0310     -0.0144     -0.8165      0.0871      0.0026
        28        -4.1295      0.1456      0.0148     -0.3150     -0.1653     -0.0103
        29         1.5561      0.0357      0.0064      0.0330      0.0060      0.0275
        30         1.5893      0.0372     -0.0054      0.9472     -0.0021     -0.0009
        31        -0.8373     -0.0432      0.0188      0.6879      0.2048      0.0396
        32        -1.3439      0.0315      0.0104      0.6451      0.2722     -0.0172
        33        -0.1653      0.0146     -0.0543     -0.2546     -0.4481     -0.0497
        34        -1.3272      0.0121      0.0307     -0.5785      0.2125     -0.0002
        35        -3.7887     -0.1196      0.0352     -0.6073     -0.2162      0.0416
        36         2.9407      0.0143     -0.0034      0.4630      0.0483      0.0270
        37         0.0730     -0.0709     -0.0021      1.3501      0.1173     -0.0589
        38        -0.4363     -0.1090     -0.0098      0.2098      0.1492     -0.0387
        39        -1.3329     -0.1424      0.0253      0.6052      0.1971      0.1057
        40         0.1031     -0.0019     -0.0055     -0.0247     -0.0229      0.0036
        41         0.5780      0.5417     -0.0053     -1.9701      0.0590     -0.0113
        42         3.4964     -0.0847     -0.0304     -1.1418     -0.1529     -0.0334
        43        -0.7388      0.0673     -0.0040     -0.2592     -0.1440      0.0200
        44         1.9430     -0.2005     -0.0161      0.1017     -0.3149     -0.0923
        45        -3.3132      0.6193      0.0196     -1.2525      0.1987      0.0422
        46         2.7604      0.3012     -0.0935     -2.2325     -0.2918     -0.0686
        47         0.0773     -0.2835     -0.0086     -1.0296     -0.0632      0.0080
        48        -0.6279      0.0401      0.0161      0.2835      0.0501     -0.0369
        49        -2.5696      0.0189      0.0472      0.8656      0.0991      0.0747
        50         3.0877      0.0709     -0.0231     -1.4729      0.0161      0.0508
        51        -0.4963     -0.0486      0.0032     -0.2729     -0.0417     -0.0097
        52        -0.7747     -0.0178     -0.0432      0.3285     -0.0265      0.0237
        53        -0.2887      0.0312      0.0005     -0.0068     -0.0070      0.0073
        54        -0.4681      0.0551     -0.0119     -0.1010      0.0526      0.0798
        55        -0.1206      0.0530     -0.0118     -0.0615      0.0654      0.0020
        56        -0.0948      0.0106      0.0462     -0.1810     -0.4241      0.1204
        57         0.4450     -0.0460     -0.0149      0.3141     -0.1174     -0.0902
        58         0.8590      0.0397     -0.0140      0.3247     -0.1101     -0.0344
        59         0.7394     -0.0182     -0.0412      0.5809     -0.1382     -0.0066
        60        -0.9046     -0.0119     -0.0421      0.2121     -0.0464     -0.0368
        61         2.1163     -0.0375     -0.0573      0.4503     -0.1890     -0.0621
        62         1.2935      0.1289      0.0603      0.5186      0.2304      0.1072
        63        -2.1616     -0.0534     -0.0287      0.0402     -0.0564     -0.0528
        64         2.3784      0.0296     -0.0284      0.9525      0.1914     -0.0323
        65        -3.5201     -0.1518      0.0514     -1.7984     -0.2990      0.0723
        66        -2.6958      0.2848      0.0038      1.9910      0.1601      0.0437
        67        -6.1253      0.2465      0.0226     -0.6209     -0.1939     -0.0163
        68        -4.2046      0.2793      0.0663     -0.5734      0.1543      0.0917
        69         2.6375     -0.0348     -0.0505      0.7829     -0.0779     -0.0365
        70        -1.0656      0.0695      0.0122      1.0825      0.2390      0.1036
        71        -0.2515     -0.1946     -0.0739     -0.9064     -0.3869     -0.0421
        72         0.3512     -0.0335     -0.0314      0.0735     -0.2582     -0.0311
        73         6.3855     -0.2621      0.0760      0.7276      0.6426      0.0983
        74         2.4879      0.0699      0.0464     -0.9732     -0.3238      0.1258
        75         2.4443     -0.2588     -0.0142     -0.5529      0.4157      0.0500
        76         0.4213      0.0805      0.0193     -0.8441      0.1080     -0.0263
        77         0.5687      0.0272      0.0086     -0.1150      0.0905      0.0106
        78         1.2429     -0.0024      0.0002     -1.0855     -0.0245      0.0433
        79        -1.0213     -0.0994     -0.0170     -0.1790     -0.1648      0.0704
        80        -0.8508     -0.2031     -0.0164     -0.8580     -0.2126     -0.0084
        81        -0.0080     -0.0459      0.0244      0.1505      0.1353      0.0012
        82        -1.5109      0.0738     -0.0214     -0.2387     -0.2321      0.0040
        83         0.0546      0.1324     -0.0040      0.3336     -0.0771      0.0391
        84         4.1252     -0.4195     -0.0176      0.7968     -0.2043     -0.0907
        85         2.1592     -0.5354      0.0008      0.8979     -0.1863     -0.0544
        86         0.3084      0.0402      0.0710     -0.0036      0.8956      0.0826
        87         0.8240     -0.1298     -0.0741     -0.2240      0.3883      0.1058
        88         0.5313     -0.0261      0.0037     -0.3784     -0.1916      0.0877
        89         2.8060      0.2197     -0.0703     -1.9837     -0.3208     -0.1391
        90        -1.5819     -0.1243     -0.0190      1.0597     -0.1541     -0.1357
        91        -0.1913     -0.0974      0.0126     -0.3476     -0.2113     -0.1030
        92        -0.2933     -0.0547      0.0037      0.6861     -0.0978      0.0075
        93        -0.5837      0.0177     -0.0594      0.0297     -0.1556     -0.0390
        94         0.2230      0.1067     -0.2043     -0.3713     -0.0467     -0.4321
        95         0.5586      0.0269     -0.0127     -0.1729      0.1980      0.0347
        96         0.6577     -0.0592     -0.0084     -0.0430     -0.5869      0.0314
        97        -0.2412     -0.1425     -0.0237     -1.1773     -0.2408     -0.0033
        98         1.5645      0.0631     -0.0035      2.4208      0.3671      0.0702
        99         5.3303     -0.3435     -0.0268      0.2748      0.0403      0.1484
       100        -0.8400      0.0968     -0.0499     -0.3776     -0.2652     -0.0943
       101         1.4240      0.0531      0.0656      0.2284      0.2189     -0.0549
       102        -2.1517     -0.0487      0.0005     -0.4595     -0.2152      0.2637
       103        -0.3391      0.0295      0.0040     -0.2138     -0.1331     -0.0075
       104         0.1695      0.0230     -0.0487      0.0756     -0.1834      0.0152
       105         0.6434     -0.0750     -0.0034     -0.1300      0.1295      0.1472
       106         0.7516      0.0847      0.0400     -0.0879      0.5684     -0.1467
       107         0.6720     -0.0587      0.1532     -0.3204     -0.1972      0.0569
       108         0.1741      0.0686      0.0463      0.2462      0.0270     -0.0781
       109         0.5479      0.0142     -0.0337      0.2090      0.1890      0.0710
       110        -1.6359     -0.0124     -0.1266     -0.6161      0.0248     -0.1113
       111         0.5290      0.0023     -0.0054     -0.0574     -0.3613     -0.0143
       112        -0.2661      0.1947     -0.0731      0.2179     -0.7622     -0.0023
       113        -0.4680      0.0527     -0.0434     -0.1198     -0.3535     -0.0590
       114        -0.9452      0.0866     -0.0132     -0.0040     -0.0914     -0.0210
       115         0.3668      0.1850      0.0466      0.3933     -0.0327     -0.0157
       116        -0.1460     -0.1133     -0.0332     -0.0061     -0.0727      0.0744
       117        -0.5518     -0.0082     -0.0236     -0.2407     -0.6135      0.0904
       118         0.6794      0.1213      0.0629      0.5550      0.4237      0.1093
       119         0.1336     -0.1929     -0.0282     -0.9146     -0.3158     -0.0184
       120         0.1916     -0.0701     -0.0373     -0.3648      0.0996      0.0102
       121         0.7753     -0.2616     -0.0146      0.1474     -0.2859      0.0107
       122         0.4423     -0.2214     -0.0107     -0.2402     -0.0085      0.0108
       123        -1.3957      0.0047     -0.0286      0.0133     -0.3608     -0.0041
       124        -0.7556      0.0644     -0.1061      0.1232     -0.0464      0.0444
       125        -0.9246     -0.0581     -0.0311     -0.1217     -0.4982      0.1419
       126         0.7187     -0.0133      0.0215     -0.1292      0.1777     -0.0381
       127         0.3729     -0.2654     -0.0632     -0.2745      0.0803     -0.1085
       128         0.5173      0.0342     -0.0070      0.3087     -0.5564      0.0217
       129        -0.3956     -0.0142      0.0279      0.1646      0.3413      0.0841
       130         0.2348     -0.0395      0.0169     -0.0917     -0.3086     -0.0617
       131        -0.5850      0.2232      0.0247     -0.3517      0.1037     -0.0083
       132         0.5470     -0.1705      0.0055      0.9713      0.0962     -0.0001
       133         0.1249      0.0226     -0.0759      0.0238     -0.4197     -0.0459
       134        -0.1228      0.0449     -0.0472     -0.8481      0.0172     -0.0089
       135         0.8436      0.0672     -0.0167     -0.3861      0.4160     -0.1211
       136         0.8247      0.0910     -0.0248      0.4367     -0.2231      0.0261
       137         1.0694     -0.1472     -0.0330     -1.0721      0.2388      0.0275
       138         2.8423      0.0031     -0.1410     -0.0423     -0.0311     -0.0844
       139        -0.4533      0.1543     -0.0616      0.3642     -0.0250     -0.1022
       140         1.4080      0.0191     -0.0537     -1.1398     -0.7024      0.0699
       141         0.2151     -0.0719      0.0167      0.4469     -0.1466     -0.0143
       142        -0.3718     -0.0945      0.0016      0.7445      0.2413      0.1116
       143         0.4228     -0.0111      0.0278     -0.1325      0.0360      0.0358
       144         0.2777     -0.0157     -0.0140     -0.3907      0.1553     -0.1376
       145         0.4573     -0.0838      0.1121     -0.2575     -0.2769     -0.0178
       146         1.1838     -0.0819     -0.0292     -0.8086     -1.2351      0.0993
       147        -1.0555      0.0615     -0.0035      0.8755     -0.3374      0.0817
       148         0.4519     -0.1242      0.1001     -0.0273      0.0386      0.0702
       149        -2.0734     -0.0093     -0.0214      1.2968     -0.6079     -0.0343
       150        -2.0418      0.1083     -0.0781      1.3846      0.1272     -0.0502
 <0|del|b> * <b|rxdel|0> + <0|del|b> * <b|delr+rdel|0>
 Rotatory Strengths (R) in cgs (10**-40 erg-esu-cm/Gauss)
       state          XX          YY          ZZ    R(velocity)    E-M Angle
         1        31.0345     27.7511   -224.6517    -55.2887       91.09
         2         0.0290     -0.3272     -1.9199     -0.7393      102.59
         3        -0.1040      2.5753      4.1609      2.2107       88.07
         4        -1.8146     -3.7545      9.6884      1.3731       79.50
         5        43.4511     -1.2740     41.9348     28.0373       77.99
         6        -7.0365     -8.3410      1.3854     -4.6640       92.37
         7        36.0248     20.7019     -3.0324     17.8981       84.02
         8        -8.0451     -0.3535     -4.9808     -4.4598      127.58
         9         0.2957      1.3464      3.5844      1.7421       13.46
        10        -9.3333     -1.4610     -5.3296     -5.3746      119.30
        11       -49.2409      8.8496    -15.0100    -18.4671      148.70
        12        12.7627      3.4051      0.9673      5.7117       83.93
        13        -1.1856     -3.7673     -1.0181     -1.9903      139.61
        14         7.3324      1.6191      1.0453      3.3322       36.09
        15       -10.1682     10.7549     -2.1983     -0.5372       99.61
        16        -8.9750      4.0917      2.4726     -0.8035       94.17
        17        18.3483     -0.8572      7.6623      8.3845       64.61
        18        -2.6858     -2.9194     -1.5922     -2.3991      130.07
        19         5.4649      4.6475     -0.1704      3.3140       61.79
        20        -2.8871      4.3610      3.8264      1.7668       86.20
        21        -9.5497    -10.9765     -1.3834     -7.3032      113.72
        22       -24.1896      2.6138      2.3131     -6.4209      115.87
        23         3.0928      3.5042      2.5369      3.0446       55.58
        24         4.8789     15.0629      0.1079      6.6832       65.20
        25        -3.0956      0.0485     -1.9655     -1.6708      111.98
        26       -13.7992      0.0462      0.5073     -4.4153      105.89
        27       -53.0635     12.6881     15.4470     -8.3095       93.89
        28        13.6299      0.3916     -2.2318      3.9299       87.98
        29         1.0618     -3.3574     -2.8271     -1.7076       99.54
        30        48.2103      3.5310      7.5026     19.7480       74.27
        31        -6.7195     -2.1093    -24.7018    -11.1769       98.13
        32       -78.1545     -0.1571     10.1553    -22.7188      110.36
        33        50.1322     -1.9336     -2.4441     15.2515       31.40
        34        33.8418      1.6155      0.6981     12.0518        6.76
        35       -50.4350     24.8418    -38.0574    -21.2169       98.66
        36        19.4730     -2.8084     43.6053     20.0900       77.30
        37        18.1207    -10.5965      2.9485      3.4909       87.24
        38        -3.9502     -3.6091     -3.2277     -3.5957      103.57
        39        27.1982     11.8745     -4.7944     11.4261       64.44
        40         0.0010     -1.8353     -2.4943     -1.4429      116.41
        41       -46.7789     -3.4052    -16.5987    -22.2609       93.02
        42        82.6567      1.8608     10.1251     31.5475       77.21
        43         7.9023     -2.5004      0.9198      2.1072       72.21
        44       -25.1559    -32.5964     -0.4314    -19.3946      104.01
        45      -169.1865    -12.3228    -23.1097    -68.2063      109.31
        46       137.8443     -3.6493     11.7744     48.6565       81.96
        47        22.3892     -2.4363      2.0861      7.3464       85.26
        48         0.1191      1.3036      3.8804      1.7677       81.34
        49        15.8841      2.6931      6.4689      8.3487       80.10
        50        39.6479      9.7487      3.6858     17.6942       83.91
        51         1.2903      0.6066      0.0539      0.6503       82.30
        52        34.2582      5.3147      2.5641     14.0457       66.43
        53        -0.0587      0.1732      0.0845      0.0663       90.00
        54        -1.7871     -2.5138     -0.3164     -1.5391      150.56
        55        -0.1503      0.3192      0.4792      0.2161       43.05
        56        20.7262      0.4355      0.8342      7.3320       21.48
        57        -2.6947     -4.2948      4.3078     -0.8939       95.87
[...]
 Alpha  occ. eigenvalues --   -0.53041  -0.52890  -0.51090  -0.50772  -0.49091
 Alpha  occ. eigenvalues --   -0.47909  -0.47671  -0.47549  -0.46842  -0.46704
 Alpha  occ. eigenvalues --   -0.46346  -0.46074  -0.45084  -0.44188  -0.43893
 Alpha  occ. eigenvalues --   -0.43619  -0.42526  -0.41064  -0.40960  -0.40479
 Alpha  occ. eigenvalues --   -0.40365  -0.39737  -0.39452  -0.38573  -0.38317
 Alpha  occ. eigenvalues --   -0.37833  -0.37767  -0.37528  -0.37392  -0.36828
 Alpha  occ. eigenvalues --   -0.36455  -0.36050  -0.35897  -0.35776  -0.35595
 Alpha  occ. eigenvalues --   -0.35380  -0.32612  -0.32225  -0.32071  -0.29380
 Alpha  occ. eigenvalues --   -0.26929  -0.25746  -0.25638  -0.23653  -0.18590
 Alpha virt. eigenvalues --   -0.10870  -0.04855  -0.03297  -0.03279  -0.02168
 Alpha virt. eigenvalues --   -0.02044  -0.01648  -0.01385   0.00072   0.00261
 Alpha virt. eigenvalues --    0.00703   0.01425   0.01586   0.01687   0.02002
 Alpha virt. eigenvalues --    0.02476   0.02661   0.02738   0.02909   0.03177
 Alpha virt. eigenvalues --    0.03569   0.03609   0.03975   0.04299   0.04492
 Alpha virt. eigenvalues --    0.04764   0.04954   0.05485   0.05634   0.05742
 Alpha virt. eigenvalues --    0.06229   0.06436   0.06558   0.06738   0.07360
 Alpha virt. eigenvalues --    0.07552   0.07773   0.07992   0.08055   0.08147
 Alpha virt. eigenvalues --    0.08368   0.08610   0.08884   0.09287   0.09541
 Alpha virt. eigenvalues --    0.09650   0.09910   0.10061   0.10356   0.10819
 Alpha virt. eigenvalues --    0.10967   0.11089   0.11469   0.11580   0.11957
 Alpha virt. eigenvalues --    0.12105   0.12354   0.12528   0.12924   0.13288
 Alpha virt. eigenvalues --    0.13324   0.13463   0.13699   0.13776   0.14255
 Alpha virt. eigenvalues --    0.14432   0.14443   0.14593   0.14858   0.14965
 Alpha virt. eigenvalues --    0.15419   0.15755   0.15843   0.16085   0.16377
 Alpha virt. eigenvalues --    0.16448   0.16575   0.16871   0.17043   0.17330
 Alpha virt. eigenvalues --    0.17475   0.17579   0.17845   0.17999   0.18199
 Alpha virt. eigenvalues --    0.18297   0.18470   0.18564   0.18644   0.19003
 Alpha virt. eigenvalues --    0.19085   0.19626   0.19759   0.19926   0.20259
 Alpha virt. eigenvalues --    0.20290   0.20605   0.20839   0.21010   0.21118
 Alpha virt. eigenvalues --    0.21424   0.21470   0.21713   0.21872   0.22260
 Alpha virt. eigenvalues --    0.22339   0.22480   0.22619   0.22763   0.23034
 Alpha virt. eigenvalues --    0.23159   0.23421   0.23478   0.23570   0.23752
 Alpha virt. eigenvalues --    0.24240   0.24425   0.24526   0.25054   0.25099
 Alpha virt. eigenvalues --    0.25184   0.25403   0.25859   0.25973   0.26204
 Alpha virt. eigenvalues --    0.26505   0.26593   0.27250   0.27449   0.27606
 Alpha virt. eigenvalues --    0.27697   0.27918   0.28188   0.28813   0.28963
 Alpha virt. eigenvalues --    0.29052   0.29121   0.29403   0.29468   0.29644
 Alpha virt. eigenvalues --    0.30169   0.30387   0.30866   0.31042   0.31478
 Alpha virt. eigenvalues --    0.31603   0.31731   0.32288   0.32397   0.32578
 Alpha virt. eigenvalues --    0.32632   0.33168   0.33354   0.33800   0.34554
 Alpha virt. eigenvalues --    0.34792   0.35007   0.35090   0.35638   0.36292
 Alpha virt. eigenvalues --    0.36305   0.37159   0.37954   0.38186   0.38540
 Alpha virt. eigenvalues --    0.39480   0.40063   0.40091   0.40399   0.40771
 Alpha virt. eigenvalues --    0.41122   0.41412   0.41447   0.41852   0.42748
 Alpha virt. eigenvalues --    0.43424   0.43764   0.44065   0.44614   0.45394
 Alpha virt. eigenvalues --    0.45866   0.46057   0.46870   0.46961   0.47779
 Alpha virt. eigenvalues --    0.48404   0.48630   0.49350   0.49814   0.50056
 Alpha virt. eigenvalues --    0.50164   0.50309   0.50672   0.50816   0.51466
 Alpha virt. eigenvalues --    0.51577   0.51668   0.51859   0.51997   0.52064
 Alpha virt. eigenvalues --    0.52489   0.52856   0.53304   0.53626   0.53802
 Alpha virt. eigenvalues --    0.53923   0.54364   0.54837   0.55081   0.55226
 Alpha virt. eigenvalues --    0.55558   0.55992   0.56335   0.56415   0.56668
 Alpha virt. eigenvalues --    0.56826   0.57455   0.57606   0.57841   0.57986
 Alpha virt. eigenvalues --    0.58891   0.58935   0.59081   0.59892   0.60157
 Alpha virt. eigenvalues --    0.60479   0.60679   0.60780   0.61680   0.62109
 Alpha virt. eigenvalues --    0.62199   0.63056   0.63220   0.63643   0.63813
 Alpha virt. eigenvalues --    0.63946   0.64098   0.64469   0.64707   0.64809
 Alpha virt. eigenvalues --    0.65206   0.65427   0.65794   0.66105   0.66563
 Alpha virt. eigenvalues --    0.66835   0.67089   0.67410   0.67598   0.67950
 Alpha virt. eigenvalues --    0.68194   0.68603   0.68761   0.68863   0.69097
 Alpha virt. eigenvalues --    0.69495   0.69907   0.70192   0.70662   0.70778
 Alpha virt. eigenvalues --    0.71193   0.71475   0.71678   0.71998   0.72158
 Alpha virt. eigenvalues --    0.72533   0.72581   0.72837   0.73355   0.73465
 Alpha virt. eigenvalues --    0.73914   0.74451   0.74615   0.74712   0.75189
 Alpha virt. eigenvalues --    0.75766   0.75855   0.76429   0.76708   0.76885
 Alpha virt. eigenvalues --    0.77384   0.77588   0.77993   0.78367   0.78511
 Alpha virt. eigenvalues --    0.78913   0.78977   0.79364   0.79654   0.79787
 Alpha virt. eigenvalues --    0.80286   0.80372   0.80615   0.80829   0.81102
 Alpha virt. eigenvalues --    0.81343   0.81678   0.81942   0.82273   0.82961
 Alpha virt. eigenvalues --    0.83230   0.83680   0.84098   0.84576   0.84892
 Alpha virt. eigenvalues --    0.84931   0.85348   0.85854   0.86149   0.86306
 Alpha virt. eigenvalues --    0.87031   0.87473   0.87563   0.88005   0.88626
 Alpha virt. eigenvalues --    0.88811   0.89534   0.90552   0.90694   0.91105
 Alpha virt. eigenvalues --    0.91883   0.92372   0.92849   0.93070   0.93647
 Alpha virt. eigenvalues --    0.94065   0.94572   0.95660   0.96107   0.96493
 Alpha virt. eigenvalues --    0.97631   0.97940   0.98391   0.98750   0.99296
 Alpha virt. eigenvalues --    1.00355   1.00656   1.01011   1.01837   1.02358
 Alpha virt. eigenvalues --    1.02872   1.03379   1.04276   1.04661   1.04880
 Alpha virt. eigenvalues --    1.06584   1.08071   1.08312   1.09458   1.09968
 Alpha virt. eigenvalues --    1.11081   1.11622   1.12289   1.12762   1.13201
 Alpha virt. eigenvalues --    1.13233   1.13501   1.14887   1.15055   1.15751
 Alpha virt. eigenvalues --    1.16458   1.16649   1.16741   1.17306   1.18343
 Alpha virt. eigenvalues --    1.18761   1.18938   1.19104   1.19511   1.19947
 Alpha virt. eigenvalues --    1.20282   1.21156   1.21463   1.21827   1.22179
 Alpha virt. eigenvalues --    1.23066   1.23248   1.24072   1.24956   1.25344
 Alpha virt. eigenvalues --    1.25680   1.26212   1.27532   1.28286   1.28594
 Alpha virt. eigenvalues --    1.29673   1.29719   1.30292   1.30753   1.31127
 Alpha virt. eigenvalues --    1.31865   1.32246   1.33258   1.33408   1.33737
 Alpha virt. eigenvalues --    1.33965   1.34249   1.34703   1.35332   1.35528
 Alpha virt. eigenvalues --    1.37290   1.38315   1.38500   1.38970   1.39908
 Alpha virt. eigenvalues --    1.40744   1.41124   1.41603   1.42634   1.43903
 Alpha virt. eigenvalues --    1.45434   1.46152   1.47657   1.48032   1.49066
 Alpha virt. eigenvalues --    1.49192   1.49845   1.51174   1.51710   1.52345
 Alpha virt. eigenvalues --    1.53380   1.53675   1.54533   1.55311   1.55693
 Alpha virt. eigenvalues --    1.56613   1.56818   1.57287   1.58045   1.58566
 Alpha virt. eigenvalues --    1.59855   1.60179   1.60480   1.61268   1.61688
 Alpha virt. eigenvalues --    1.61861   1.62375   1.62865   1.63569   1.64221
 Alpha virt. eigenvalues --    1.64966   1.66137   1.66775   1.66810   1.68270
 Alpha virt. eigenvalues --    1.69327   1.69781   1.69909   1.70304   1.70831
 Alpha virt. eigenvalues --    1.71426   1.72070   1.73513   1.74253   1.74709
 Alpha virt. eigenvalues --    1.75842   1.76073   1.77526   1.78264   1.79884
 Alpha virt. eigenvalues --    1.80694   1.81654   1.81909   1.84024   1.84848
 Alpha virt. eigenvalues --    1.85544   1.86123   1.86459   1.87789   1.88873
 Alpha virt. eigenvalues --    1.89176   1.91275   1.91531   1.93387   1.94195
 Alpha virt. eigenvalues --    1.94953   1.96111   1.97626   1.98076   1.99334
 Alpha virt. eigenvalues --    2.01395   2.02422   2.03795   2.04873   2.05835
 Alpha virt. eigenvalues --    2.06263   2.07996   2.09162   2.11031   2.13556
 Alpha virt. eigenvalues --    2.14304   2.14735   2.14855   2.15356   2.16276
 Alpha virt. eigenvalues --    2.17418   2.18284   2.18669   2.19803   2.20477
 Alpha virt. eigenvalues --    2.22485   2.23411   2.23474   2.24131   2.25210
 Alpha virt. eigenvalues --    2.25689   2.26368   2.26617   2.26860   2.27913
 Alpha virt. eigenvalues --    2.28799   2.30252   2.30816   2.33485   2.35505
 Alpha virt. eigenvalues --    2.35881   2.36004   2.37636   2.37999   2.38721
 Alpha virt. eigenvalues --    2.39092   2.39942   2.41081   2.41741   2.42959
 Alpha virt. eigenvalues --    2.44815   2.45833   2.47330   2.47888   2.49080
 Alpha virt. eigenvalues --    2.49542   2.50904   2.53139   2.54182   2.54478
 Alpha virt. eigenvalues --    2.58934   2.59429   2.60217   2.61559   2.62040
 Alpha virt. eigenvalues --    2.62698   2.62780   2.64091   2.65300   2.66349
 Alpha virt. eigenvalues --    2.66788   2.67327   2.68649   2.69114   2.69629
 Alpha virt. eigenvalues --    2.70182   2.70893   2.71675   2.72306   2.72498
 Alpha virt. eigenvalues --    2.73786   2.74409   2.74740   2.75561   2.76016
 Alpha virt. eigenvalues --    2.76184   2.76278   2.76416   2.76834   2.77229
 Alpha virt. eigenvalues --    2.79141   2.79375   2.79635   2.80307   2.80745
 Alpha virt. eigenvalues --    2.81619   2.81991   2.82269   2.82587   2.82780
 Alpha virt. eigenvalues --    2.83253   2.83710   2.84116   2.85822   2.86293
 Alpha virt. eigenvalues --    2.87288   2.87590   2.88457   2.89910   2.90993
 Alpha virt. eigenvalues --    2.91304   2.92154   2.93182   2.94081   2.94547
 Alpha virt. eigenvalues --    2.96948   2.98633   2.99964   3.00738   3.00942
 Alpha virt. eigenvalues --    3.03377   3.03785   3.06445   3.07260   3.09701
 Alpha virt. eigenvalues --    3.09843   3.09875   3.10614   3.12326   3.12811
 Alpha virt. eigenvalues --    3.13791   3.13948   3.14562   3.14933   3.15410
 Alpha virt. eigenvalues --    3.16489   3.17843   3.18338   3.19355   3.19750
 Alpha virt. eigenvalues --    3.21025   3.21846   3.22485   3.22891   3.23329
 Alpha virt. eigenvalues --    3.23834   3.24650   3.25428   3.25695   3.26113
 Alpha virt. eigenvalues --    3.26568   3.27386   3.27868   3.28195   3.28748
 Alpha virt. eigenvalues --    3.29053   3.29371   3.29476   3.30233   3.30771
 Alpha virt. eigenvalues --    3.31169   3.31333   3.31826   3.32204   3.32533
 Alpha virt. eigenvalues --    3.33617   3.34062   3.35120   3.35507   3.36214
 Alpha virt. eigenvalues --    3.37273   3.37636   3.39176   3.39862   3.40995
 Alpha virt. eigenvalues --    3.41367   3.41762   3.42158   3.43598   3.44039
 Alpha virt. eigenvalues --    3.44340   3.44726   3.45665   3.45995   3.46318
 Alpha virt. eigenvalues --    3.46878   3.47829   3.49112   3.49362   3.49933
 Alpha virt. eigenvalues --    3.50815   3.51867   3.52380   3.52987   3.53398
 Alpha virt. eigenvalues --    3.54149   3.54864   3.55207   3.55736   3.55970
 Alpha virt. eigenvalues --    3.56634   3.56914   3.57082   3.57361   3.57783
 Alpha virt. eigenvalues --    3.57950   3.58030   3.58842   3.59080   3.59730
 Alpha virt. eigenvalues --    3.59869   3.60240   3.60538   3.61295   3.61663
 Alpha virt. eigenvalues --    3.62092   3.62615   3.62941   3.64096   3.64520
 Alpha virt. eigenvalues --    3.65134   3.66081   3.66548   3.67373   3.67476
 Alpha virt. eigenvalues --    3.67968   3.68818   3.69157   3.69539   3.70279
 Alpha virt. eigenvalues --    3.70867   3.71572   3.72301   3.73308   3.74756
 Alpha virt. eigenvalues --    3.75121   3.75723   3.75888   3.76711   3.77349
 Alpha virt. eigenvalues --    3.78078   3.78772   3.79074   3.80343   3.81588
 Alpha virt. eigenvalues --    3.82398   3.83123   3.84748   3.86757   3.88490
 Alpha virt. eigenvalues --    3.88762   3.89260   3.90201   3.91600   3.92581
 Alpha virt. eigenvalues --    3.92629   3.93224   3.93685   3.94682   3.96144
 Alpha virt. eigenvalues --    3.98250   4.00213   4.01124   4.02200   4.03441
 Alpha virt. eigenvalues --    4.03629   4.04072   4.06758   4.07509   4.08602
 Alpha virt. eigenvalues --    4.10177   4.11162   4.13247   4.15556   4.16660
 Alpha virt. eigenvalues --    4.20097   4.22197   4.23038   4.23487   4.25116
 Alpha virt. eigenvalues --    4.25485   4.26922   4.27173   4.36508   4.37165
 Alpha virt. eigenvalues --    4.43684   4.44997   4.45147   4.45502   4.46399
 Alpha virt. eigenvalues --    4.49513   4.53476   4.56658   4.60722   4.60847
 Alpha virt. eigenvalues --    4.64543   4.72600   4.74178   4.76104   4.78394
 Alpha virt. eigenvalues --    4.78888   4.93380   5.04286   5.06280   5.11612
 Alpha virt. eigenvalues --    5.12474   5.18407   5.20098   5.21389   5.24304
 Alpha virt. eigenvalues --    5.25180   5.30469   5.32754   5.45302   5.49152
 Alpha virt. eigenvalues --    5.60567   5.63557   5.84484   5.87025   8.23017
 Alpha virt. eigenvalues --    8.25762  17.30378  17.30470  17.73696  17.75114
 Alpha virt. eigenvalues --   17.80887  17.81312  23.63492  23.63906  23.86817
 Alpha virt. eigenvalues --   23.90673  23.91948  23.96742  23.96983  23.98924
 Alpha virt. eigenvalues --   23.99605  23.99797  24.00326  24.00598  24.02326
 Alpha virt. eigenvalues --   24.02707  24.03037  24.04399  24.04703  24.06672
 Alpha virt. eigenvalues --   24.08847  24.10269  24.10731  24.13631  24.14996
 Alpha virt. eigenvalues --   24.18217  24.18341  35.69162  35.69741 189.41067
 Alpha virt. eigenvalues --  189.43602
          Condensed to atoms (all electrons):
 Mulliken charges:
               1
     1  C   -0.305790
     2  C    0.033632
     3  C   -0.460691
     4  C    0.274546
     5  C    0.586171
     6  S   -0.522237
     7  C    0.459505
     8  C    0.479812
     9  N    0.138466
    10  C   -0.391281
    11  C   -0.195591
    12  C   -0.232369
    13  C   -0.305148
    14  C   -0.225656
    15  C   -0.436425
    16  C   -0.501441
    17  C    0.274732
    18  C   -0.414815
    19  C    0.535951
    20  S   -0.474281
    21  C    0.547660
    22  C    0.444317
    23  N    0.157576
    24  C   -0.472517
    25  C   -0.278334
    26  C   -0.246750
    27  C   -0.324005
    28  C   -0.266211
    29  C   -0.465288
    30  H    0.140937
    31  H    0.132345
    32  H    0.115285
    33  H    0.127487
    34  H    0.153053
    35  H    0.133875
    36  H    0.133675
    37  H    0.146802
    38  H    0.153605
    39  H    0.154027
    40  H    0.149102
    41  H    0.147748
    42  H    0.148599
    43  H    0.114825
    44  H    0.142679
    45  H    0.143293
    46  H    0.153709
    47  H    0.135224
    48  H    0.133477
    49  H    0.152548
    50  H    0.158502
    51  H    0.158250
    52  H    0.150954
    53  H    0.155395
    54  H    0.151067
 Sum of Mulliken charges =   1.00000
 Mulliken charges with hydrogens summed into heavy atoms:
               1
     1  C   -0.164854
     2  C    0.165977
     3  C   -0.345406
     4  C    0.402033
     5  C    0.586171
     6  S   -0.522237
     7  C    0.459505
     8  C    0.479812
     9  N    0.138466
    10  C   -0.238228
    11  C   -0.061716
    12  C   -0.098693
    13  C   -0.158346
    14  C    0.081975
    15  C    0.009024
    16  C   -0.386615
    17  C    0.417411
    18  C   -0.271522
    19  C    0.535951
    20  S   -0.474281
    21  C    0.547660
    22  C    0.444317
    23  N    0.157576
    24  C   -0.318808
    25  C   -0.143110
    26  C   -0.113273
    27  C   -0.171457
    28  C    0.050541
    29  C   -0.007872
 Electronic spatial extent (au):  <R**2>=          33478.0621
 Charge=              1.0000 electrons
 Dipole moment (field-independent basis, Debye):
    X=             -1.0229    Y=              0.1864    Z=              0.6274  Tot=              1.2144
 Quadrupole moment (field-independent basis, Debye-Ang):
   XX=             32.8013   YY=           -148.2349   ZZ=           -194.3707
   XY=             27.3018   XZ=              4.7760   YZ=              5.0578
 Traceless Quadrupole moment (field-independent basis, Debye-Ang):
   XX=            136.0694   YY=            -44.9668   ZZ=            -91.1026
   XY=             27.3018   XZ=              4.7760   YZ=              5.0578
 Octapole moment (field-independent basis, Debye-Ang**2):
  XXX=            -96.0750  YYY=              6.0945  ZZZ=              4.6434  XYY=            -42.7319
  XXY=             11.6763  XXZ=             -7.8373  XZZ=              5.2092  YZZ=             -1.0626
  YYZ=              3.9835  XYZ=             23.2632
 Hexadecapole moment (field-independent basis, Debye-Ang**3):
 XXXX=         -27472.3766 YYYY=          -2515.5187 ZZZZ=           -393.9872 XXXY=            785.7211
 XXXZ=             -4.1814 YYYX=            114.1757 YYYZ=             37.9544 ZZZX=              2.5370
 ZZZY=              6.0140 XXYY=          -6229.4424 XXZZ=          -7850.9226 YYZZ=           -556.2425
 XXYZ=            248.1225 YYXZ=             34.9652 ZZXY=             68.9972
 N-N= 2.585855029803D+03 E-N=-9.541250873664D+03  KE= 1.867435103947D+03
 Unable to Open any file for archive entry.
 1\1\GINC-CN10\SP\RB3LYP TD-FC\6-311+G(2d,p)\C25H25N2S2(1+)\2100011873\
 02-Nov-2023\0\\# td=(nstates=150) b3lyp/6-311+g(2d,p) scrf(smd, solven
 t=ethanol)\\A-4\\1,1\C,0,-3.663712,-1.051948,-0.111557\C,0,-2.389638,-
 0.479979,-0.083458\C,0,-1.194967,-1.195004,-0.064041\C,0,0.058349,-0.5
 78322,-0.035613\C,0,-4.855344,-0.323764,-0.124892\S,0,-4.926662,1.4367
 11,-0.060618\C,0,-6.688233,1.402029,-0.083292\C,0,-7.154955,0.079357,-
 0.139452\N,0,-6.111858,-0.857268,-0.18359\C,0,-7.565153,2.482703,-0.04
 8916\C,0,-8.934956,2.22022,-0.065794\C,0,-9.407072,0.90276,-0.113224\C
 ,0,-8.529361,-0.179533,-0.14882\C,0,-6.366284,-2.306872,-0.248314\C,0,
 -6.467137,-2.955883,1.133259\C,0,1.282162,-1.246091,-0.016052\C,0,2.51
 1127,-0.582889,0.011938\C,0,3.741215,-1.244345,-0.008435\C,0,5.052439,
 -0.74902,0.008808\S,0,6.36259,-1.866987,-0.365292\C,0,7.562983,-0.6008
 06,-0.16552\C,0,6.941017,0.612357,0.169846\N,0,5.544832,0.495298,0.283
 261\C,0,8.946272,-0.695535,-0.30211\C,0,9.708364,0.454142,-0.100703\C,
 0,9.092982,1.668657,0.22877\C,0,7.709445,1.764545,0.3665\C,0,4.732809,
 1.623027,0.770139\C,0,4.282282,2.569892,-0.344236\H,0,-3.731831,-2.134
 826,-0.113428\H,0,-2.310249,0.607987,-0.076294\H,0,-1.237617,-2.283434
 ,-0.072611\H,0,0.079156,0.512977,-0.027655\H,0,-7.192939,3.501353,-0.0
 08437\H,0,-9.638205,3.046285,-0.038434\H,0,-10.476042,0.714855,-0.1197
 01\H,0,-8.914544,-1.192671,-0.174894\H,0,-7.289207,-2.442036,-0.816617
 \H,0,-5.570728,-2.757498,-0.845647\H,0,-6.666359,-4.026758,1.023381\H,
 0,-5.536643,-2.835556,1.696522\H,0,-7.280055,-2.514652,1.717995\H,0,1.
 279871,-2.33528,-0.024232\H,0,2.47239,0.50228,0.013643\H,0,3.691082,-2
 .326769,-0.105404\H,0,9.416627,-1.639291,-0.55871\H,0,10.787594,0.4054
 4,-0.203502\H,0,9.700309,2.555856,0.37729\H,0,7.251286,2.716142,0.6111
 87\H,0,3.887111,1.202637,1.316886\H,0,5.342782,2.154926,1.505154\H,0,3
 .668719,2.054906,-1.089954\H,0,3.6925,3.387191,0.083941\H,0,5.141488,3
 .005946,-0.862588\\Version=ES64L-G16RevC.02\State=1-A\HF=-1873.8245496
 \RMSD=4.729e-09\PG=C01 [X(C25H25N2S2)]\\@
 The archive entry for this job was punched.


 STEINBACH'S GUIDELINES FOR SYSTEMS PROGRAMMING:
 NEVER TEST FOR AN ERROR CONDITION YOU DON'T KNOW HOW
 TO HANDLE.
 Job cpu time:       3 days  4 hours 15 minutes  8.5 seconds.
 Elapsed time:       0 days  2 hours 30 minutes 19.1 seconds.
 File lengths (MBytes):  RWF=  38592 Int=      0 D2E=      0 Chk=   3776 Scr=     32
 Normal termination of Gaussian 16 at Thu Nov  2 21:13:00 2023.
