 Entering Gaussian System, Link 0=g16
 Initial command:
 /home/zcwang/Gaussian16_AVX2/g16/l1.exe "/home/zcwang/Gaussian16_AVX2/g16/tmp/Gau-3544.inp" -scrdir="/home/zcwang/Gaussian16_AVX2/g16/tmp/"
 Default is to use a total of   4 processors:
                                4 via shared-memory
                                1 via Linda
 Entering Link 1 = /home/zcwang/Gaussian16_AVX2/g16/l1.exe PID=      3547.
  
 Copyright (c) 1988-2021, Gaussian, Inc.  All Rights Reserved.
  
 This is part of the Gaussian(R) 16 program.  It is based on
 the Gaussian(R) 09 system (copyright 2009, Gaussian, Inc.),
 the Gaussian(R) 03 system (copyright 2003, Gaussian, Inc.),
 the Gaussian(R) 98 system (copyright 1998, Gaussian, Inc.),
 the Gaussian(R) 94 system (copyright 1995, Gaussian, Inc.),
 the Gaussian 92(TM) system (copyright 1992, Gaussian, Inc.),
 the Gaussian 90(TM) system (copyright 1990, Gaussian, Inc.),
 the Gaussian 88(TM) system (copyright 1988, Gaussian, Inc.),
 the Gaussian 86(TM) system (copyright 1986, Carnegie Mellon
 University), and the Gaussian 82(TM) system (copyright 1983,
 Carnegie Mellon University). Gaussian is a federally registered
 trademark of Gaussian, Inc.
  
 This software contains proprietary and confidential information,
 including trade secrets, belonging to Gaussian, Inc.
  
 This software is provided under written license and may be
 used, copied, transmitted, or stored only in accord with that
 written license.
  
 The following legend is applicable only to US Government
 contracts under FAR:
  
                    RESTRICTED RIGHTS LEGEND
  
 Use, reproduction and disclosure by the US Government is
 subject to restrictions as set forth in subparagraphs (a)
 and (c) of the Commercial Computer Software - Restricted
 Rights clause in FAR 52.227-19.
  
 Gaussian, Inc.
 340 Quinnipiac St., Bldg. 40, Wallingford CT 06492
  
  
 ---------------------------------------------------------------
 Warning -- This program may not be used in any manner that
 competes with the business of Gaussian, Inc. or will provide
 assistance to any competitor of Gaussian, Inc.  The licensee
 of this program is prohibited from giving any competitor of
 Gaussian, Inc. access to this program.  By using this program,
 the user acknowledges that Gaussian, Inc. is engaged in the
 business of creating and licensing software in the field of
 computational chemistry and represents and warrants to the
 licensee that it is not a competitor of Gaussian, Inc. and that
 it will not use this program in any manner prohibited above.
 ---------------------------------------------------------------
  

 Cite this work as:
 Gaussian 16, Revision C.02,
 M. J. Frisch, G. W. Trucks, H. B. Schlegel, G. E. Scuseria, 
 M. A. Robb, J. R. Cheeseman, G. Scalmani, V. Barone, 
 G. A. Petersson, H. Nakatsuji, X. Li, M. Caricato, A. V. Marenich, 
 J. Bloino, B. G. Janesko, R. Gomperts, B. Mennucci, H. P. Hratchian, 
 J. V. Ortiz, A. F. Izmaylov, J. L. Sonnenberg, D. Williams-Young, 
 F. Ding, F. Lipparini, F. Egidi, J. Goings, B. Peng, A. Petrone, 
 T. Henderson, D. Ranasinghe, V. G. Zakrzewski, J. Gao, N. Rega, 
 G. Zheng, W. Liang, M. Hada, M. Ehara, K. Toyota, R. Fukuda, 
 J. Hasegawa, M. Ishida, T. Nakajima, Y. Honda, O. Kitao, H. Nakai, 
 T. Vreven, K. Throssell, J. A. Montgomery, Jr., J. E. Peralta, 
 F. Ogliaro, M. J. Bearpark, J. J. Heyd, E. N. Brothers, K. N. Kudin, 
 V. N. Staroverov, T. A. Keith, R. Kobayashi, J. Normand, 
 K. Raghavachari, A. P. Rendell, J. C. Burant, S. S. Iyengar, 
 J. Tomasi, M. Cossi, J. M. Millam, M. Klene, C. Adamo, R. Cammi, 
 J. W. Ochterski, R. L. Martin, K. Morokuma, O. Farkas, 
 J. B. Foresman, and D. J. Fox, Gaussian, Inc., Wallingford CT, 2019.
 
 ******************************************
 Gaussian 16:  ES64L-G16RevC.02  7-Dec-2021
                31-Oct-2023 
 ******************************************
 %chk=/home/zcwang/Gaussian16_AVX2/Cal/linux-A2-f.chk
 %nprocshared=16
 Will use up to   16 processors via shared memory.
 %mem=4000MB
 -------------------------------------------------------------
 # td=(nstates=60) b3lyp/6-31g(d,p) scrf(smd, solvent=ethanol)
 -------------------------------------------------------------
 1/38=1,172=1/1;
 2/12=2,17=6,18=5,40=1/2;
 3/5=1,6=6,7=101,11=9,25=1,30=1,70=32201,72=4,74=-5/1,2,3,8;
 4//1;
 5/5=2,38=5,53=4/2;
 8/6=1,10=2,108=60/1;
 9/41=60,42=1,70=2/14;
 6/7=2,8=2,9=2,10=2/1;
 99/5=1,9=1/99;
 ---
 A-2
 ---
 Symbolic Z-matrix:
 Charge =  1 Multiplicity = 1
 C                     1.18593   1.12419   0.25907 
 C                    -0.06404   0.51889   0.18474 
 C                    -1.25506   1.23243   0.20607 
 C                    -2.57691   0.77597   0.13437 
 C                     2.39263   0.43147   0.17128 
 S                    -3.82767   1.97001  -0.18708 
 C                    -5.07788   0.74479  -0.13478 
 C                    -4.5092   -0.50864   0.11385 
 N                    -3.11837  -0.45818   0.27972 
 S                     2.5052   -1.30012  -0.12511 
 C                     4.26032  -1.22576  -0.10255 
 C                     4.68878   0.08701   0.11942 
 N                     3.62751   0.98166   0.28741 
 C                     5.15932  -2.26746  -0.2795 
 C                     6.51791  -1.9736   -0.23726 
 C                     6.95394  -0.66384  -0.02533 
 C                     6.05157   0.37821   0.15346 
 C                    -6.4468    0.90418  -0.30422 
 C                    -7.25123  -0.22611  -0.22641 
 C                    -6.68975  -1.48249   0.01487 
 C                    -5.32005  -1.6405    0.18625 
 C                     3.84714   2.41567   0.55458 
 C                     3.91176   3.24964  -0.71763 
 C                    -2.36937  -1.66031   0.69242 
 C                    -1.91885  -2.52299  -0.47911 
 H                     1.22885   2.1992    0.37656 
 H                    -0.09664  -0.55695   0.07224 
 H                    -1.16519   2.31437   0.2242 
 H                     4.81396  -3.27995  -0.44835 
 H                     7.24042  -2.76872  -0.37396 
 H                     8.01554  -0.44971  -0.00207 
 H                     6.40682   1.38809   0.30607 
 H                    -6.87574   1.88074  -0.49123 
 H                    -8.32188  -0.12916  -0.35743 
 H                    -7.33033  -2.35428   0.06736 
 H                    -4.90197  -2.62169   0.36374 
 H                     3.04859   2.7543    1.21217 
 H                     4.77271   2.49485   1.12204 
 H                     4.08254   4.2955   -0.45252 
 H                     4.72891   2.92447  -1.36454 
 H                     2.9782    3.18722  -1.27998 
 H                    -1.53167  -1.32932   1.3026 
 H                    -3.02767  -2.2247    1.35177 
 H                    -1.2761   -1.97256  -1.16835 
 H                    -1.35915  -3.37917  -0.09602 
 H                    -2.77567  -2.8996   -1.0408 
 
                          Input orientation:                          
 ---------------------------------------------------------------------
 Center     Atomic      Atomic             Coordinates (Angstroms)
 Number     Number       Type             X           Y           Z
 ---------------------------------------------------------------------
      1          6           0        1.185932    1.124188    0.259065
      2          6           0       -0.064042    0.518894    0.184736
      3          6           0       -1.255062    1.232433    0.206071
      4          6           0       -2.576908    0.775971    0.134368
      5          6           0        2.392634    0.431471    0.171283
      6         16           0       -3.827667    1.970009   -0.187075
      7          6           0       -5.077877    0.744792   -0.134775
      8          6           0       -4.509195   -0.508640    0.113846
      9          7           0       -3.118372   -0.458179    0.279721
     10         16           0        2.505198   -1.300121   -0.125106
     11          6           0        4.260315   -1.225762   -0.102553
     12          6           0        4.688784    0.087010    0.119416
     13          7           0        3.627512    0.981655    0.287411
     14          6           0        5.159317   -2.267461   -0.279503
     15          6           0        6.517913   -1.973596   -0.237257
     16          6           0        6.953940   -0.663841   -0.025333
     17          6           0        6.051566    0.378213    0.153458
     18          6           0       -6.446804    0.904176   -0.304215
     19          6           0       -7.251229   -0.226106   -0.226408
     20          6           0       -6.689747   -1.482485    0.014868
     21          6           0       -5.320051   -1.640504    0.186250
     22          6           0        3.847144    2.415669    0.554580
     23          6           0        3.911762    3.249637   -0.717632
     24          6           0       -2.369369   -1.660308    0.692423
     25          6           0       -1.918854   -2.522991   -0.479110
     26          1           0        1.228852    2.199196    0.376562
     27          1           0       -0.096636   -0.556945    0.072235
     28          1           0       -1.165193    2.314370    0.224199
     29          1           0        4.813961   -3.279951   -0.448352
     30          1           0        7.240415   -2.768718   -0.373960
     31          1           0        8.015538   -0.449707   -0.002068
     32          1           0        6.406822    1.388085    0.306065
     33          1           0       -6.875736    1.880738   -0.491225
     34          1           0       -8.321880   -0.129159   -0.357431
     35          1           0       -7.330326   -2.354283    0.067360
     36          1           0       -4.901973   -2.621689    0.363736
     37          1           0        3.048585    2.754296    1.212168
     38          1           0        4.772710    2.494849    1.122044
     39          1           0        4.082538    4.295496   -0.452515
     40          1           0        4.728911    2.924468   -1.364544
     41          1           0        2.978199    3.187215   -1.279982
     42          1           0       -1.531667   -1.329317    1.302601
     43          1           0       -3.027666   -2.224702    1.351768
     44          1           0       -1.276100   -1.972556   -1.168349
     45          1           0       -1.359149   -3.379171   -0.096017
     46          1           0       -2.775672   -2.899604   -1.040801
 ---------------------------------------------------------------------
                    Distance matrix (angstroms):
                    1          2          3          4          5
     1  C    0.000000
     2  C    1.390806   0.000000
     3  C    2.443967   1.388568   0.000000
     4  C    3.780975   2.526484   1.400277   0.000000
     5  C    1.394164   2.458268   3.734761   4.981605   0.000000
     6  S    5.103982   4.050784   2.704973   1.758821   6.417762
     7  C    6.287635   5.029081   3.868835   2.515603   7.483340
     8  C    5.926355   4.562920   3.691778   2.320427   6.965799
     9  N    4.585994   3.208212   2.517045   1.355521   5.583406
    10  S    2.786633   3.163196   4.545664   5.495934   1.760377
    11  C    3.886498   4.671876   6.046268   7.128161   2.511900
    12  C    3.655846   4.772855   6.053826   7.298299   2.322423
    13  N    2.445901   3.721863   4.889687   6.209715   1.356876
    14  C    5.251774   5.938246   7.323203   8.323638   3.891269
    15  C    6.186487   7.050725   8.419875   9.508627   4.792617
    16  C    6.045481   7.120047   8.428352   9.640313   4.695091
    17  C    4.923619   6.117306   7.356580   8.637658   3.659363
    18  C    7.656654   6.413047   5.227077   3.896779   8.864830
    19  C    8.558310   7.237384   6.186145   4.794121   9.674433
    20  C    8.299440   6.923463   6.078087   4.693650   9.283175
    21  C    7.069416   5.682309   4.977780   3.656074   7.986164
    22  C    2.972760   4.362558   5.249192   6.643315   2.489891
    23  C    3.591882   4.906959   5.623025   6.996268   3.322646
    24  C    4.536671   3.212662   3.137861   2.507978   5.227217
    25  C    4.846289   3.624098   3.874700   3.419436   5.266952
    26  H    1.082261   2.128799   2.670866   4.070385   2.126354
    27  H    2.122756   1.082196   2.135822   2.816429   2.680157
    28  H    2.635439   2.106615   1.085814   2.089900   4.025698
    29  H    5.749737   6.215057   7.590976   8.450740   4.474531
    30  H    7.225801   8.029672   9.408442  10.450026   5.834336
    31  H    7.013477   8.139576   9.424274  10.663996   5.694170
    32  H    5.227767   6.530107   7.664117   9.006196   4.128799
    33  H    8.131777   6.979306   5.700745   4.482388   9.404359
    34  H    9.609861   8.300952   7.218822   5.836594  10.742190
    35  H    9.201259   7.814589   7.056388   5.691921  10.114701
    36  H    7.148786   5.770691   5.308397   4.123425   7.910127
    37  H    2.652383   3.967504   4.674364   6.059834   2.628541
    38  H    3.935533   5.308212   6.226294   7.612288   3.290325
    39  H    4.353604   5.644726   6.189189   7.555111   4.263284
    40  H    4.292996   5.582065   6.413871   7.761299   3.745930
    41  H    3.136394   4.303553   4.893876   6.218818   3.169098
    42  H    3.807098   2.611404   2.800259   2.624792   4.447515
    43  H    5.492128   4.203849   4.050497   3.269447   6.150484
    44  H    4.205822   3.083382   3.487324   3.308107   4.586237
    45  H    5.184955   4.117163   4.622660   4.336037   5.354280
    46  H    5.794382   4.532219   4.576098   3.863985   6.267104
                    6          7          8          9         10
     6  S    0.000000
     7  C    1.751262   0.000000
     8  C    2.588191   1.398679   0.000000
     9  N    2.572371   2.336366   1.401588   0.000000
    10  S    7.127606   7.853966   7.062949   5.700640   0.000000
    11  C    8.696870   9.543896   8.801443   7.428347   1.756836
    12  C    8.727517   9.792086   9.217247   7.827810   2.598456
    13  N    7.535362   8.718838   8.273881   6.897835   2.576094
    14  C    9.936326  10.672149   9.835055   8.491547   2.829122
    15  C   11.071837  11.910604  11.129532   9.768405   4.070384
    16  C   11.099837  12.114489  11.465030  10.079029   4.495121
    17  C   10.012443  11.139208  10.598007   9.208868   3.933336
    18  C    2.830124   1.388551   2.434164   3.643549   9.221136
    19  C    4.067585   2.382121   2.777472   4.170196   9.815887
    20  C    4.489098   2.753413   2.390184   3.724791   9.197818
    21  C    3.924587   2.418955   1.394219   2.500804   7.838834
    22  C    7.723431   9.106209   8.864211   7.540090   4.008726
    23  C    7.862423   9.350272   9.258970   8.010331   4.798938
    24  C    4.009907   3.715478   2.497988   1.475277   4.955753
    25  C    4.890389   4.558113   3.334527   2.505617   4.603582
    26  H    5.092995   6.492425   6.350321   5.096016   3.758450
    27  H    4.513683   5.152682   4.413020   3.030461   2.713078
    28  H    2.715971   4.231020   4.377661   3.391905   5.163170
    29  H   10.114746  10.683883   9.742560   8.450704   3.058529
    30  H   12.041300  12.811802  11.974942  10.633455   4.963969
    31  H   12.089283  13.148458  12.525408  11.137479   5.576934
    32  H   10.262874  11.511146  11.081243   9.702510   4.757629
    33  H    3.064507   2.156323   3.416980   4.492513   9.912307
    34  H    4.963212   3.367035   3.860398   5.252686  10.892692
    35  H    5.570714   3.836489   3.371548   4.623945   9.893727
    36  H    4.747759   3.407734   2.163723   2.805186   7.540006
    37  H    7.060866   8.478900   8.305005   7.015755   4.303704
    38  H    8.715259  10.083470   9.807710   8.467530   4.593342
    39  H    8.249224   9.829632   9.859937   8.659486   5.822897
    40  H    8.689790  10.121087   9.965665   8.702055   4.932368
    41  H    6.999703   8.495722   8.465410   7.272534   4.657645
    42  H    4.286759   4.352423   3.309429   2.079134   4.281995
    43  H    4.539123   3.902700   2.583069   2.068361   5.800741
    44  H    4.797626   4.785997   3.773589   2.790020   3.979791
    45  H    5.891995   5.553153   4.266940   3.430487   4.388220
    46  H    5.054569   4.404844   3.170965   2.796744   5.593249
                   11         12         13         14         15
    11  C    0.000000
    12  C    1.398652   0.000000
    13  N    2.329206   1.398181   0.000000
    14  C    1.387319   2.433942   3.636561   0.000000
    15  C    2.382047   2.778313   4.166918   1.390656   0.000000
    16  C    2.752696   2.390745   3.724324   2.420097   1.396599
    17  C    2.418028   1.393963   2.501624   2.825448   2.429227
    18  C   10.918777  11.173564  10.091970  12.031705  13.280435
    19  C   11.555531  11.949123  10.957632  12.577424  13.879593
    20  C   10.953700  11.486741  10.610942  11.878685  13.219192
    21  C    9.593687  10.157044   9.324421  10.508433  11.850219
    22  C    3.723245   2.514036   1.475132   4.934491   5.198621
    23  C    4.530895   3.362532   2.496928   5.673334   5.857042
    24  C    6.691302   7.293763   6.565561   7.615405   8.941266
    25  C    6.325087   7.129602   6.605473   7.085594   8.458095
    26  H    4.598876   4.061845   2.691454   5.985817   6.764845
    27  H    4.411450   4.828783   4.035204   5.538468   6.771628
    28  H    6.486558   6.264276   4.974952   7.826003   8.810772
    29  H    2.155410   3.416790   4.484450   1.083013   2.157447
    30  H    3.366804   3.861272   5.249360   2.142697   1.083012
    31  H    3.835891   3.371960   4.624648   3.396940   2.149519
    32  H    3.406854   2.163166   2.808932   3.906683   3.407116
    33  H   11.567759  11.718723  10.570376  12.731649  13.939520
    34  H   12.632463  13.021194  12.018224  13.649948  14.954459
    35  H   11.646690  12.264649  11.456488  12.494760  13.856819
    36  H    9.279739   9.968920   9.259699  10.088052  11.454039
    37  H    4.363215   3.316440   2.081487   5.647859   6.040698
    38  H    3.950333   2.609597   2.073125   4.979297   4.986024
    39  H    5.535194   4.290221   3.425796   6.652954   6.728960
    40  H    4.363097   3.202330   2.777869   5.321531   5.335010
    41  H    4.743894   3.807320   2.782593   5.959171   6.344353
    42  H    5.960892   6.488445   5.743547   6.939195   8.220827
    43  H    7.498506   8.149006   7.463577   8.348028   9.680193
    44  H    5.687312   6.440496   5.906946   6.503200   7.849431
    45  H    6.017939   6.974118   6.635556   6.615132   8.002731
    46  H    7.292953   8.123058   7.604544   7.996451   9.374108
                   16         17         18         19         20
    16  C    0.000000
    17  C    1.390008   0.000000
    18  C   13.495051  12.517801   0.000000
    19  C   14.213334  13.321931   1.389493   0.000000
    20  C   13.668284  12.877207   2.420121   1.397127   0.000000
    21  C   12.314605  11.549457   2.825867   2.429044   1.389392
    22  C    4.412693   3.028465  10.439708  11.435156  11.247798
    23  C    5.004941   3.685463  10.628828  11.701900  11.632778
    24  C    9.403840   8.680910   4.918876   5.170468   4.376799
    25  C    9.076829   8.505570   5.681408   5.811520   4.907962
    26  H    6.413668   5.159876   7.813849   8.840669   8.740126
    27  H    7.052061   6.219446   6.526961   7.168462   6.658005
    28  H    8.651724   7.472303   5.492111   6.610363   6.706760
    29  H    3.406242   3.908453  12.013847  12.447652  11.652500
    30  H    2.152700   3.405100  14.171626  14.713748  13.994820
    31  H    1.083229   2.137013  14.528717  15.270052  14.741517
    32  H    2.149317   1.081359  12.877201  13.763412  13.410633
    33  H   14.069537  13.030285   1.082880   2.156366   3.406170
    34  H   15.288782  14.391469   2.141617   1.082986   2.152663
    35  H   14.384243  13.658293   3.396503   2.149812   1.083111
    36  H   12.022779  11.358858   3.906966   3.406771   2.148402
    37  H    5.335435   3.972975   9.792077  10.818432  10.687327
    38  H    4.006440   2.655895  11.421119  12.401493  12.183306
    39  H    5.746517   4.425989  11.063005  12.204519  12.232973
    40  H    4.429470   3.246099  11.406248  12.439663  12.317052
    41  H    5.675499   4.403502   9.746541  10.835219  10.814431
    42  H    8.614627   7.857583   5.632843   6.022320   5.318600
    43  H   10.196330   9.520692   4.921652   4.931887   3.968504
    44  H    8.411467   7.808199   5.979841   6.295991   5.563070
    45  H    8.745597   8.312573   6.653919   6.683968   5.659062
    46  H   10.034698   9.491600   5.337463   5.276499   4.294490
                   21         22         23         24         25
    21  C    0.000000
    22  C   10.031235   0.000000
    23  C   10.486031   1.522564   0.000000
    24  C    2.993848   7.434892   8.096198   0.000000
    25  C    3.576259   7.661959   8.208301   1.523048   0.000000
    26  H    7.593922   2.633250   3.081995   5.286089   5.739275
    27  H    5.335838   4.962106   5.584014   2.601415   2.736749
    28  H    5.736315   5.024235   5.247594   4.179395   4.945979
    29  H   10.285364   5.863505   6.597120   7.451499   6.775303
    30  H   12.623471   6.265329   6.886119   9.732096   9.163168
    31  H   13.389974   5.088786   5.571190  10.478271  10.159637
    32  H   12.112236   2.769411   3.276989   9.298575   9.232004
    33  H    3.908743  10.787030  10.876362   5.852126   6.630509
    34  H    3.404516  12.465675  12.696771   6.235303   6.836957
    35  H    2.136544  12.162469  12.585892   5.048108   5.441610
    36  H    1.081210  10.097447  10.645363   2.728804   3.101472
    37  H    9.507936   1.088479   2.171305   7.008073   7.442152
    38  H   10.947177   1.088557   2.166874   8.274007   8.515835
    39  H   11.137899   2.145554   1.092370   8.854919   9.083456
    40  H   11.145652   2.172424   1.091770   8.696946   8.640115
    41  H    9.711728   2.171628   1.091638   7.482335   7.564984
    42  H    3.961683   6.596671   7.394530   1.087942   2.179281
    43  H    2.637186   8.332560   9.077801   1.089326   2.161147
    44  H    4.277702   6.962229   7.374846   2.180644   1.091404
    45  H    4.334903   7.817220   8.491761   2.143985   1.092279
    46  H    3.092709   8.640547   9.090620   2.169102   1.091545
                   26         27         28         29         30
    26  H    0.000000
    27  H    3.073410   0.000000
    28  H    2.401652   3.067468   0.000000
    29  H    6.599586   5.639125   8.215780   0.000000
    30  H    7.834688   7.676154   9.841231   2.480841   0.000000
    31  H    7.295146   8.113223   9.590471   4.296457   2.473243
    32  H    5.241588   6.792112   7.628900   4.989680   4.293754
    33  H    8.157133   7.226063   5.771496  12.778246  14.862601
    34  H    9.857812   8.247560   7.584675  13.508741  15.784567
    35  H    9.699964   7.453638   7.734972  12.190428  14.583313
    36  H    7.799238   5.238263   6.192550   9.772009  12.165665
    37  H    2.077932   4.707035   4.350350   6.502770   7.112730
    38  H    3.633467   5.841753   6.008110   5.984660   6.002727
    39  H    3.636670   6.425499   5.649910   7.610676   7.738312
    40  H    3.975913   6.121313   6.134883   6.272277   6.300895
    41  H    2.603946   5.030093   4.493564   6.773911   7.379736
    42  H    4.574759   2.041978   3.817553   6.865698   9.046113
    43  H    6.216096   3.606876   5.034222   8.114499  10.426293
    44  H    5.105394   2.221292   4.508794   6.270289   8.590457
    45  H    6.167597   3.096322   5.705836   6.183953   8.625683
    46  H    6.636482   3.728825   5.601731   7.622217  10.039114
                   31         32         33         34         35
    31  H    0.000000
    32  H    2.461786   0.000000
    33  H   15.080461  13.315582   0.000000
    34  H   16.344426  14.821502   2.479701   0.000000
    35  H   15.463757  14.239787   4.295820   2.472813   0.000000
    36  H   13.103946  11.998769   4.989844   4.292849   2.460944
    37  H    6.034122   3.737019  10.107265  11.834924  11.624541
    38  H    4.522164   2.135666  11.775656  13.436612  13.080899
    39  H    6.179672   3.798786  11.221244  13.170277  13.219050
    40  H    4.903398   2.822551  11.684173  13.441059  13.241630
    41  H    6.343110   4.184241   9.971412  11.812757  11.780884
    42  H    9.676001   8.449672   6.487013   7.092466   6.016712
    43  H   11.266580  10.156539   5.921056   5.944860   4.492146
    44  H    9.487561   8.514405   6.830981   7.327941   6.190827
    45  H    9.822186   9.121332   7.632533   7.688338   6.060697
    46  H   11.114458  10.223332   6.321727   6.237210   4.719139
                   36         37         38         39         40
    36  H    0.000000
    37  H    9.634958   0.000000
    38  H   10.970574   1.745864   0.000000
    39  H   11.368164   2.493096   2.489559   0.000000
    40  H   11.247255   3.080893   2.523809   1.768986   0.000000
    41  H    9.926847   2.530451   3.077234   1.769902   1.772337
    42  H    3.729699   6.137001   7.375772   8.138689   8.025160
    43  H    2.155651   7.856891   9.119912   9.814450   9.698288
    44  H    3.989438   6.834683   7.860770   8.277433   7.751096
    45  H    3.651952   7.665434   8.578314   9.414859   8.854914
    46  H    2.563419   8.424038   9.526599   9.957439   9.504914
                   41         42         43         44         45
    41  H    0.000000
    42  H    6.885324   0.000000
    43  H    8.502080   1.744175   0.000000
    44  H    6.688405   2.566060   3.079375   0.000000
    45  H    7.958127   2.487528   2.492555   1.770694   0.000000
    46  H    8.379356   3.082999   2.498676   1.767598   1.768937
                   46
    46  H    0.000000
 Stoichiometry    C21H21N2S2(1+)
 Framework group  C1[X(C21H21N2S2)]
 Deg. of freedom   132
 Full point group                 C1      NOp   1
 Largest Abelian subgroup         C1      NOp   1
 Largest concise Abelian subgroup C1      NOp   1
                         Standard orientation:                         
 ---------------------------------------------------------------------
 Center     Atomic      Atomic             Coordinates (Angstroms)
 Number     Number       Type             X           Y           Z
 ---------------------------------------------------------------------
      1          6           0        1.185932    1.124188    0.259065
      2          6           0       -0.064042    0.518894    0.184736
      3          6           0       -1.255062    1.232433    0.206071
      4          6           0       -2.576908    0.775971    0.134368
      5          6           0        2.392634    0.431471    0.171283
      6         16           0       -3.827667    1.970009   -0.187075
      7          6           0       -5.077877    0.744792   -0.134775
      8          6           0       -4.509195   -0.508640    0.113846
      9          7           0       -3.118372   -0.458179    0.279721
     10         16           0        2.505198   -1.300121   -0.125106
     11          6           0        4.260315   -1.225762   -0.102553
     12          6           0        4.688784    0.087010    0.119416
     13          7           0        3.627512    0.981655    0.287411
     14          6           0        5.159317   -2.267461   -0.279503
     15          6           0        6.517913   -1.973596   -0.237257
     16          6           0        6.953940   -0.663841   -0.025333
     17          6           0        6.051566    0.378213    0.153458
     18          6           0       -6.446804    0.904176   -0.304215
     19          6           0       -7.251229   -0.226106   -0.226408
     20          6           0       -6.689747   -1.482485    0.014868
     21          6           0       -5.320051   -1.640504    0.186250
     22          6           0        3.847144    2.415669    0.554580
     23          6           0        3.911762    3.249637   -0.717632
     24          6           0       -2.369369   -1.660308    0.692423
     25          6           0       -1.918854   -2.522991   -0.479110
     26          1           0        1.228852    2.199196    0.376562
     27          1           0       -0.096636   -0.556945    0.072235
     28          1           0       -1.165193    2.314370    0.224199
     29          1           0        4.813961   -3.279951   -0.448352
     30          1           0        7.240415   -2.768718   -0.373960
     31          1           0        8.015538   -0.449707   -0.002068
     32          1           0        6.406822    1.388085    0.306065
     33          1           0       -6.875736    1.880738   -0.491225
     34          1           0       -8.321880   -0.129159   -0.357431
     35          1           0       -7.330326   -2.354283    0.067360
     36          1           0       -4.901973   -2.621689    0.363736
     37          1           0        3.048585    2.754296    1.212168
     38          1           0        4.772710    2.494849    1.122044
     39          1           0        4.082538    4.295496   -0.452515
     40          1           0        4.728911    2.924468   -1.364544
     41          1           0        2.978199    3.187215   -1.279982
     42          1           0       -1.531667   -1.329317    1.302601
     43          1           0       -3.027666   -2.224702    1.351768
     44          1           0       -1.276100   -1.972556   -1.168349
     45          1           0       -1.359149   -3.379171   -0.096017
     46          1           0       -2.775672   -2.899604   -1.040801
 ---------------------------------------------------------------------
 Rotational constants (GHZ):           0.5429629           0.0715335           0.0638922
 Standard basis: 6-31G(d,p) (6D, 7F)
 There are   488 symmetry adapted cartesian basis functions of A   symmetry.
 There are   488 symmetry adapted basis functions of A   symmetry.
   488 basis functions,   895 primitive gaussians,   488 cartesian basis functions
    96 alpha electrons       96 beta electrons
       nuclear repulsion energy      2285.6548009337 Hartrees.
 NAtoms=   46 NActive=   46 NUniq=   46 SFac= 1.00D+00 NAtFMM=   60 NAOKFM=F Big=F
 Integral buffers will be    131072 words long.
 Regular integral format.
 Two-electron integral symmetry is turned on.
 ------------------------------------------------------------------------------
 Polarizable Continuum Model (PCM)
 =================================
 Model                : PCM.
 Atomic radii         : SMD-Coulomb.
 Polarization charges : Total charges.
 Charge compensation  : None.
 Solution method      : On-the-fly selection.
 Cavity type          : VdW (van der Waals Surface) (Alpha=1.000).
 Cavity algorithm     : GePol (No added spheres)
                        Default sphere list used, NSphG=   46.
                        Lebedev-Laikov grids with approx.  5.0 points / Ang**2.
                        Smoothing algorithm: York/Karplus (Gamma=1.0000).
                        Polarization charges: spherical gaussians, with
                                              point-specific exponents (IZeta= 3).
                        Self-potential: point-specific (ISelfS= 7).
                        Self-field    : sphere-specific E.n sum rule (ISelfD= 2).
 Solvent              : Ethanol, Eps=  24.852000 Eps(inf)=   1.852593
 ------------------------------------------------------------------------------
 ------------------------------------------------------------------------------
 Atomic radii for non-electrostatic terms: SMD-CDS.
 ------------------------------------------------------------------------------
 Nuclear repulsion after PCM non-electrostatic terms =     2285.6487450168 Hartrees.
 One-electron integrals computed using PRISM.
 NBasis=   488 RedAO= T EigKep=  4.32D-04  NBF=   488
 NBsUse=   488 1.00D-06 EigRej= -1.00D+00 NBFU=   488
 ExpMin= 1.17D-01 ExpMax= 2.19D+04 ExpMxC= 3.30D+03 IAcc=3 IRadAn=         5 AccDes= 0.00D+00
 Harris functional with IExCor=  402 and IRadAn=       5 diagonalized for initial guess.
 HarFok:  IExCor=  402 AccDes= 0.00D+00 IRadAn=         5 IDoV= 1 UseB2=F ITyADJ=14
 ICtDFT=  3500011 ScaDFX=  1.000000  1.000000  1.000000  1.000000
 FoFCou: FMM=F IPFlag=           0 FMFlag=      100000 FMFlg1=           0
         NFxFlg=           0 DoJE=T BraDBF=F KetDBF=T FulRan=T
         wScrn=  0.000000 ICntrl=       500 IOpCl=  0 I1Cent=   200000004 NGrid=           0
         NMat0=    1 NMatS0=      1 NMatT0=    0 NMatD0=    1 NMtDS0=    0 NMtDT0=    0
 Petite list used in FoFCou.
 Requested convergence on RMS density matrix=1.00D-08 within 128 cycles.
 Requested convergence on MAX density matrix=1.00D-06.
 Requested convergence on             energy=1.00D-06.
 No special actions if energy rises.
 Inv3:  Mode=1 IEnd=    37446267.
 Iteration    1 A*A^-1 deviation from unit magnitude is 3.11D-15 for   2846.
 Iteration    1 A*A^-1 deviation from orthogonality  is 2.22D-15 for   1824    825.
 Iteration    1 A^-1*A deviation from unit magnitude is 3.55D-15 for   2846.
 Iteration    1 A^-1*A deviation from orthogonality  is 1.65D-15 for   1126    431.
 Error on total polarization charges =  0.04952
 SCF Done:  E(RB3LYP) =  -1718.68314673     A.U. after   13 cycles
            NFock= 13  Conv=0.72D-08     -V/T= 2.0067
 SMD-CDS (non-electrostatic) energy       (kcal/mol) =      -3.80
 (included in total energy above)
 DoSCS=F DFT=T ScalE2(SS,OS)=  1.000000  1.000000
 ExpMin= 1.17D-01 ExpMax= 2.19D+04 ExpMxC= 3.30D+03 IAcc=3 IRadAn=         5 AccDes= 0.00D+00
 HarFok:  IExCor=  205 AccDes= 0.00D+00 IRadAn=         5 IDoV=-2 UseB2=F ITyADJ=14
 ICtDFT= 12500011 ScaDFX=  1.000000  1.000000  1.000000  1.000000
 GSVD:  LWork=       -1353 too small for GESVD, short by        5940 words or        5940 for optimal perf.
 Range of M.O.s used for correlation:    34   488
 NBasis=   488 NAE=    96 NBE=    96 NFC=    33 NFV=     0
 NROrb=    455 NOA=    63 NOB=    63 NVA=   392 NVB=   392
 NEqPCM:  Using non-equilibrium solvation (IEInf=1, Eps=  24.8520, EpsInf=   1.8526)
 Inv3:  Mode=1 IEnd=    37446267.
 Iteration    1 A*A^-1 deviation from unit magnitude is 3.33D-15 for    722.
 Iteration    1 A*A^-1 deviation from orthogonality  is 2.40D-15 for   1755    125.
 Iteration    1 A^-1*A deviation from unit magnitude is 3.55D-15 for    722.
 Iteration    1 A^-1*A deviation from orthogonality  is 2.66D-15 for   2171   1272.
 Orbital symmetries:
       Occupied  (A) (A) (A) (A) (A) (A) (A) (A) (A) (A) (A) (A)
                 (A) (A) (A) (A) (A) (A) (A) (A) (A) (A) (A) (A)
                 (A) (A) (A) (A) (A) (A) (A) (A) (A) (A) (A) (A)
                 (A) (A) (A) (A) (A) (A) (A) (A) (A) (A) (A) (A)
                 (A) (A) (A) (A) (A) (A) (A) (A) (A) (A) (A) (A)
                 (A) (A) (A) (A) (A) (A) (A) (A) (A) (A) (A) (A)
                 (A) (A) (A) (A) (A) (A) (A) (A) (A) (A) (A) (A)
                 (A) (A) (A) (A) (A) (A) (A) (A) (A) (A) (A) (A)
       Virtual   (A) (A) (A) (A) (A) (A) (A) (A) (A) (A) (A) (A)
                 (A) (A) (A) (A) (A) (A) (A) (A) (A) (A) (A) (A)
                 (A) (A) (A) (A) (A) (A) (A) (A) (A) (A) (A) (A)
                 (A) (A) (A) (A) (A) (A) (A) (A) (A) (A) (A) (A)
                 (A) (A) (A) (A) (A) (A) (A) (A) (A) (A) (A) (A)
                 (A) (A) (A) (A) (A) (A) (A) (A) (A) (A) (A) (A)
                 (A) (A) (A) (A) (A) (A) (A) (A) (A) (A) (A) (A)
                 (A) (A) (A) (A) (A) (A) (A) (A) (A) (A) (A) (A)
                 (A) (A) (A) (A) (A) (A) (A) (A) (A) (A) (A) (A)
                 (A) (A) (A) (A) (A) (A) (A) (A) (A) (A) (A) (A)
                 (A) (A) (A) (A) (A) (A) (A) (A) (A) (A) (A) (A)
                 (A) (A) (A) (A) (A) (A) (A) (A) (A) (A) (A) (A)
                 (A) (A) (A) (A) (A) (A) (A) (A) (A) (A) (A) (A)
                 (A) (A) (A) (A) (A) (A) (A) (A) (A) (A) (A) (A)
                 (A) (A) (A) (A) (A) (A) (A) (A) (A) (A) (A) (A)
                 (A) (A) (A) (A) (A) (A) (A) (A) (A) (A) (A) (A)
                 (A) (A) (A) (A) (A) (A) (A) (A) (A) (A) (A) (A)
                 (A) (A) (A) (A) (A) (A) (A) (A) (A) (A) (A) (A)
                 (A) (A) (A) (A) (A) (A) (A) (A) (A) (A) (A) (A)
                 (A) (A) (A) (A) (A) (A) (A) (A) (A) (A) (A) (A)
                 (A) (A) (A) (A) (A) (A) (A) (A) (A) (A) (A) (A)
                 (A) (A) (A) (A) (A) (A) (A) (A) (A) (A) (A) (A)
                 (A) (A) (A) (A) (A) (A) (A) (A) (A) (A) (A) (A)
                 (A) (A) (A) (A) (A) (A) (A) (A) (A) (A) (A) (A)
                 (A) (A) (A) (A) (A) (A) (A) (A) (A) (A) (A) (A)
                 (A) (A) (A) (A) (A) (A) (A) (A) (A) (A) (A) (A)
                 (A) (A) (A) (A) (A) (A) (A) (A) (A) (A) (A) (A)
                 (A) (A) (A) (A) (A) (A) (A) (A) (A) (A) (A) (A)
                 (A) (A) (A) (A) (A) (A) (A) (A) (A) (A) (A) (A)
                 (A) (A) (A) (A) (A) (A) (A) (A) (A) (A) (A) (A)
                 (A) (A) (A) (A) (A) (A) (A) (A) (A) (A) (A) (A)
                 (A) (A) (A) (A) (A) (A) (A) (A) (A) (A) (A) (A)
                 (A) (A) (A) (A) (A) (A) (A) (A)
   240 initial guesses have been made.
 Convergence on wavefunction:    0.001000000000000
 Iteration     1 Dimension   240 NMult     0 NNew    240
 CISAX will form    48 AO SS matrices at one time.
 New state      4 was old state      8
 New state      5 was old state      4
 New state      6 was old state      9
 New state      7 was old state      6
 New state      8 was old state      5
 New state      9 was old state      7
 New state     10 was old state     11
 New state     11 was old state     10
 New state     13 was old state     26
 New state     14 was old state     27
 New state     15 was old state     28
 New state     16 was old state     20
 New state     17 was old state     13
 New state     18 was old state     14
 New state     19 was old state     25
 New state     20 was old state     31
 New state     21 was old state     15
 New state     22 was old state     16
 New state     23 was old state     22
 New state     24 was old state     34
 New state     25 was old state     24
 New state     26 was old state     21
 New state     27 was old state     23
 New state     28 was old state     18
 New state     29 was old state     35
 New state     30 was old state     29
 New state     31 was old state     17
 New state     32 was old state     37
 New state     33 was old state     40
 New state     34 was old state     39
 New state     35 was old state     38
 New state     36 was old state     33
 New state     37 was old state     32
 New state     38 was old state     42
 New state     39 was old state     48
 New state     40 was old state     49
 New state     41 was old state     46
 New state     42 was old state     43
 New state     43 was old state     47
 New state     45 was old state     50
 New state     46 was old state     52
 New state     47 was old state     53
 New state     48 was old state     45
 New state     49 was old state     55
 New state     50 was old state     54
 New state     51 was old state     66
 New state     52 was old state     41
 New state     53 was old state     73
 New state     54 was old state     58
 New state     55 was old state     80
 New state     58 was old state     51
 New state     59 was old state     72
 New state     60 was old state     69
 Iteration     2 Dimension   360 NMult   240 NNew    120
 New state      4 was old state      5
 New state      5 was old state      4
 New state      6 was old state      8
 New state      8 was old state      6
 New state     14 was old state     16
 New state     15 was old state     14
 New state     16 was old state     17
 New state     17 was old state     15
 New state     20 was old state     23
 New state     21 was old state     24
 New state     22 was old state     25
 New state     23 was old state     20
 New state     24 was old state     21
 New state     25 was old state     22
 New state     27 was old state     28
 New state     28 was old state     31
 New state     29 was old state     34
 New state     30 was old state     27
 New state     31 was old state     29
 New state     32 was old state     30
 New state     33 was old state     35
 New state     34 was old state     36
 New state     35 was old state     32
 New state     36 was old state     37
 New state     37 was old state     39
 New state     38 was old state     33
 New state     39 was old state     38
 New state     41 was old state     42
 New state     42 was old state     41
 New state     43 was old state     44
 New state     44 was old state     43
 New state     45 was old state     48
 New state     46 was old state     45
 New state     48 was old state     46
 New state     49 was old state     52
 New state     50 was old state     51
 New state     51 was old state     56
 New state     52 was old state     49
 New state     53 was old state     50
 New state     54 was old state     58
 New state     55 was old state     59
 New state     56 was old state     53
 New state     57 was old state     55
 New state     58 was old state     60
 New state     59 was old state     57
 New state     60 was old state     54
 Iteration     3 Dimension   480 NMult   360 NNew    120
 Iteration     4 Dimension   594 NMult   480 NNew    114
 Iteration     5 Dimension   638 NMult   594 NNew     44
 Iteration     6 Dimension   642 NMult   638 NNew      4
 ***********************************************************************
 Excited states from <AA,BB:AA,BB> singles matrix:
 ***********************************************************************
 
 Ground to excited state transition densities written to RWF  633
 Ground to excited state transition electric dipole moments (Au):
       state          X           Y           Z        Dip. S.      Osc.
         1         5.1271     -0.2014     -0.0030     26.3275      1.6945
         2         0.5694      0.3470      0.0645      0.4488      0.0426
         3         0.0237     -0.4608      0.0651      0.2171      0.0209
         4         0.2000      0.1774      0.0395      0.0730      0.0072
         5        -0.1135     -0.0716      0.0401      0.0196      0.0020
         6         0.6078      0.0247      0.0069      0.3700      0.0392
         7        -0.2888     -0.6639      0.0142      0.5243      0.0556
         8        -0.1678     -0.0069     -0.0297      0.0291      0.0031
         9         0.2197      0.4661      0.1613      0.2915      0.0322
        10         0.2451     -0.3676     -0.0212      0.1957      0.0225
        11        -0.4507     -0.3393     -0.0141      0.3184      0.0378
        12        -0.0531      0.4280      0.0612      0.1897      0.0249
        13         0.7323     -0.1912      0.0272      0.5736      0.0781
        14         0.2022      0.4513      0.1041      0.2554      0.0350
        15         0.2557      0.1494      0.0153      0.0879      0.0121
        16         0.1531      0.0594     -0.0000      0.0270      0.0037
        17        -0.2224      0.0098     -0.0077      0.0496      0.0069
        18         0.1450     -0.5485      0.0494      0.3244      0.0451
        19        -0.2353     -0.0464      0.0026      0.0575      0.0083
        20        -0.5053      0.1861      0.0357      0.2913      0.0422
        21         0.3117     -0.1987     -0.0657      0.1410      0.0205
        22        -0.2123     -0.3446     -0.0939      0.1727      0.0252
        23        -0.2025     -0.0190     -0.0329      0.0424      0.0063
        24        -0.2794      0.1280      0.0134      0.0946      0.0141
        25         0.2170      0.3339     -0.0047      0.1586      0.0238
        26        -0.2129      0.1124      0.0370      0.0593      0.0089
        27        -0.8760     -0.3619      0.0140      0.8985      0.1355
        28        -0.2499     -0.9725      0.0429      1.0100      0.1534
        29         0.9364     -0.4897      0.0104      1.1168      0.1714
        30         0.2978     -0.0585      0.0096      0.0922      0.0143
        31         0.0459      0.0002      0.0439      0.0040      0.0006
        32        -0.0963      0.0399     -0.0232      0.0114      0.0018
        33         0.7755     -0.0753      0.0789      0.6133      0.0963
        34        -0.8064     -0.1467      0.0264      0.6725      0.1061
        35        -0.1330      0.1030     -0.0013      0.0283      0.0045
        36         0.2841      0.1808      0.0092      0.1135      0.0181
        37         0.1808      0.4127      0.1337      0.2209      0.0355
        38        -0.0063      0.1444      0.0889      0.0288      0.0046
        39        -0.0331     -0.0406     -0.0063      0.0028      0.0005
        40         0.0234     -0.0962     -0.0015      0.0098      0.0016
        41        -0.7830      0.0374      0.0127      0.6147      0.1014
        42        -0.6640     -0.2131      0.0095      0.4864      0.0806
        43         0.0234     -0.2840      0.0052      0.0812      0.0135
        44         0.2306      0.2335     -0.0042      0.1077      0.0179
        45         0.1877      0.5168      0.0009      0.3023      0.0509
        46         0.3277     -0.2126     -0.1146      0.1657      0.0281
        47        -0.4184      0.1729      0.0524      0.2077      0.0352
        48        -0.7812     -0.1746     -0.0452      0.6428      0.1093
        49        -1.0465      0.0016     -0.0676      1.0998      0.1870
        50        -0.2816     -0.5457      0.0670      0.3816      0.0650
        51        -0.1753     -0.1858      0.0087      0.0653      0.0112
        52         0.2057     -0.1828     -0.0235      0.0763      0.0131
        53        -0.0822      0.1342     -0.0479      0.0271      0.0047
        54        -0.1436      0.2404     -0.0481      0.0807      0.0140
        55         0.0886     -0.3474      0.0109      0.1286      0.0227
        56         0.0943     -0.0097      0.0082      0.0091      0.0016
        57         0.0100     -0.0373     -0.0124      0.0016      0.0003
        58         0.0192     -0.0600     -0.0233      0.0045      0.0008
        59         0.0269     -0.0505      0.0220      0.0038      0.0007
        60        -0.0298      0.1756      0.0190      0.0321      0.0058
 Ground to excited state transition velocity dipole moments (Au):
       state          X           Y           Z        Dip. S.      Osc.
         1        -0.4830      0.0167      0.0002      0.2336      1.6128
         2        -0.0776     -0.0460     -0.0084      0.0082      0.0385
         3         0.0054      0.0644     -0.0073      0.0042      0.0196
         4        -0.0261     -0.0262     -0.0059      0.0014      0.0063
         5         0.0174      0.0102     -0.0113      0.0005      0.0023
         6        -0.0905     -0.0092     -0.0021      0.0083      0.0348
         7         0.0390      0.1048     -0.0021      0.0125      0.0524
         8         0.0248      0.0027      0.0053      0.0007      0.0027
         9        -0.0367     -0.0762     -0.0269      0.0079      0.0318
        10        -0.0498      0.0686      0.0033      0.0072      0.0277
        11         0.0773      0.0650      0.0030      0.0102      0.0383
        12         0.0150     -0.0807     -0.0093      0.0068      0.0231
        13        -0.1409      0.0415     -0.0070      0.0216      0.0706
        14        -0.0366     -0.0923     -0.0242      0.0104      0.0339
        15        -0.0509     -0.0263      0.0047      0.0033      0.0107
        16        -0.0269     -0.0100     -0.0057      0.0009      0.0028
        17         0.0417      0.0000     -0.0075      0.0018      0.0057
        18        -0.0281      0.1072     -0.0096      0.0124      0.0395
        19         0.0468      0.0079      0.0059      0.0023      0.0071
        20         0.1032     -0.0464     -0.0084      0.0129      0.0395
        21        -0.0624      0.0446      0.0149      0.0061      0.0186
        22         0.0505      0.0694      0.0234      0.0079      0.0241
        23         0.0443      0.0024     -0.0081      0.0020      0.0061
        24         0.0579     -0.0287     -0.0026      0.0042      0.0125
        25        -0.0489     -0.0701      0.0009      0.0073      0.0217
        26         0.0468     -0.0258     -0.0104      0.0030      0.0087
        27         0.1868      0.0787     -0.0038      0.0411      0.1211
        28         0.0568      0.2146     -0.0108      0.0494      0.1446
        29        -0.2138      0.1273     -0.0040      0.0619      0.1794
        30        -0.0668      0.0141     -0.0030      0.0047      0.0134
        31        -0.0091     -0.0013     -0.0123      0.0002      0.0007
        32         0.0232     -0.0076      0.0060      0.0006      0.0018
        33        -0.1795      0.0133     -0.0217      0.0329      0.0931
        34         0.1769      0.0368     -0.0083      0.0327      0.0922
        35         0.0277     -0.0228      0.0040      0.0013      0.0036
        36        -0.0606     -0.0460     -0.0020      0.0058      0.0161
        37        -0.0451     -0.0935     -0.0335      0.0119      0.0330
        38        -0.0031     -0.0366     -0.0221      0.0018      0.0051
        39         0.0100      0.0140      0.0019      0.0003      0.0008
        40        -0.0063      0.0217      0.0064      0.0006      0.0015
        41         0.1857     -0.0103     -0.0076      0.0346      0.0934
        42         0.1641      0.0420      0.0037      0.0287      0.0769
        43        -0.0070      0.0761      0.0053      0.0059      0.0157
        44        -0.0625     -0.0517      0.0106      0.0067      0.0179
        45        -0.0505     -0.1223     -0.0006      0.0175      0.0463
        46        -0.0792      0.0483      0.0333      0.0097      0.0255
        47         0.1046     -0.0438     -0.0098      0.0130      0.0339
        48         0.1927      0.0486      0.0115      0.0396      0.1037
        49         0.2586      0.0025      0.0196      0.0673      0.1758
        50         0.0652      0.1383     -0.0201      0.0238      0.0620
        51         0.0447      0.0474     -0.0033      0.0043      0.0110
        52        -0.0521      0.0510      0.0059      0.0053      0.0138
        53         0.0212     -0.0391      0.0100      0.0021      0.0053
        54         0.0340     -0.0699      0.0140      0.0062      0.0159
        55        -0.0187      0.0953     -0.0026      0.0094      0.0237
        56        -0.0246      0.0013     -0.0082      0.0007      0.0017
        57        -0.0022      0.0087      0.0095      0.0002      0.0004
        58        -0.0098      0.0167      0.0054      0.0004      0.0010
        59        -0.0062      0.0125     -0.0071      0.0002      0.0006
        60         0.0081     -0.0468     -0.0053      0.0023      0.0056
 Ground to excited state transition magnetic dipole moments (Au):
       state          X           Y           Z
         1         0.0467     -0.3123      1.3040
         2         0.0328     -0.0104     -0.1973
         3        -0.0640     -0.0203     -0.2772
         4         0.0220      0.0390     -0.0626
         5        -0.0924      0.0919     -0.3742
         6        -0.0220      0.0666     -0.8861
         7         0.0383     -0.2335     -0.8762
         8        -0.1587     -0.2187      0.4863
         9         0.0581     -0.0655     -1.4615
        10        -0.0005     -0.1818      0.3426
        11        -0.0353     -0.1581      0.0692
        12        -0.0004      0.0177      0.4565
        13        -0.0430     -0.2801      0.2627
        14         0.0489     -0.0881     -0.8874
        15         0.1532      0.4815     -0.3215
        16         0.1831      0.1235     -0.0124
        17         0.2746      0.3027      0.2096
        18        -0.0358     -0.0083     -0.4080
        19         0.0319      0.0412     -0.3178
        20        -0.0826      0.1091     -0.8234
        21        -0.0081     -0.1703      0.2574
        22        -0.0663      0.0220      1.3544
        23        -0.0530      0.0267      0.1597
        24         0.0165      0.0517      0.0756
        25         0.0215      0.0368      0.3989
        26         0.0281      0.0864      0.0107
        27        -0.0007     -0.1564     -0.1158
        28         0.0086     -0.2500     -1.5406
        29         0.0353     -0.5311      0.7864
        30        -0.0383     -0.0859     -0.1407
        31         0.0639     -0.0726     -0.0132
        32        -0.0134     -0.0832      0.8479
        33         0.0350      0.0186     -1.9959
        34         0.0579     -0.0886     -1.2783
        35         0.4094      0.0083     -0.4832
        36         0.0947      0.0064     -0.4388
        37        -0.1584      0.0103     -1.4739
        38         0.1214     -0.1087     -0.7756
        39        -0.0148      0.0670     -0.2453
        40         0.0791      0.0245     -0.2989
        41         0.0183      0.1663     -0.5437
        42         0.0748      0.0044     -1.0140
        43         0.0553     -0.0412     -0.8557
        44         0.0763      0.0049      0.3646
        45         0.0935      0.2543     -0.2329
        46         0.1522      0.2008      0.6073
        47        -0.0056      0.1033      0.1054
        48         0.4847      0.1026      0.0387
        49        -0.0888     -0.1784      0.5499
        50         0.1052     -0.0734     -2.9176
        51        -0.1403      0.1163      0.5796
        52        -0.2712      0.0014     -0.0089
        53        -0.0415      0.1317      0.1351
        54         0.0496      0.0723      0.2282
        55         0.0157     -0.2161      0.1104
        56        -0.0405      0.2046      0.0161
        57         0.0391      0.2195      0.1409
        58         0.1344     -0.0725      0.2201
        59         0.5179     -0.0873      0.0508
        60         0.0908      0.0722     -0.1785
 Ground to excited state transition velocity quadrupole moments (Au):
       state          XX          YY          ZZ          XY          XZ          YZ
         1         0.1953     -0.0771     -0.0068      0.1924      0.0353     -0.0531
         2        -0.1047     -0.0231      0.0176     -0.3169     -0.0236     -0.0058
         3         0.2232      0.0746      0.0107     -0.4399      0.0564     -0.0039
         4         1.8300      0.1270      0.0066     -0.0038      0.0003      0.0032
         5        -0.1848     -0.0182      0.0164     -0.1570      0.0454     -0.0022
         6        -2.4303      0.0442      0.0172     -0.1507     -0.0548      0.0056
         7        -1.2447     -0.0175      0.0060     -0.6772      0.0621      0.0049
         8        -0.0139     -0.0140     -0.0036      0.2045     -0.0754      0.0370
         9         3.3815      0.0863      0.0187     -0.8042      0.0241     -0.0105
        10        -0.2116     -0.0506     -0.0000      0.1133      0.0692     -0.0083
        11         0.0945     -0.0724      0.0040      0.6807      0.1466      0.0110
        12         1.8999      0.0997      0.0421      0.0987      0.0042     -0.0555
        13         1.0789     -0.0895     -0.0061      0.3644      0.1289     -0.0214
        14         2.3640      0.0082      0.0032     -0.8717     -0.0133     -0.0094
        15         0.8710     -0.0070      0.0095     -0.2819     -0.0099      0.0562
        16        -1.4020     -0.0611      0.0225     -0.0940     -0.0130     -0.0204
        17         0.4086      0.0485     -0.0282      0.1766     -0.0190     -0.0030
        18         0.6660      0.1261      0.0044     -0.3487      0.0838     -0.0091
        19        -0.2497      0.0344     -0.0050     -0.2547     -0.0891      0.0595
        20        -0.2599      0.1755     -0.0260     -0.7773     -0.1524      0.0126
        21        -2.6975     -0.5625     -0.0272      0.2929      0.0610     -0.0049
        22        -2.0937      0.0505      0.0540      1.1892     -0.0189     -0.0549
        23        -0.5276      0.0192      0.0086      0.0259     -0.0270     -0.0241
        24         1.9468      0.0627     -0.0269     -0.1013     -0.0320      0.0115
        25         1.1242     -0.0345     -0.0200      0.3799     -0.0287      0.0135
        26         1.2920      0.1127      0.0070     -0.1786     -0.0110     -0.0354
        27         3.3133     -0.1194     -0.0356     -0.5199      0.1139     -0.0012
        28        -3.0814     -0.0637      0.0554     -1.1829      0.2205     -0.0358
        29         3.1975     -0.6948     -0.0185      1.6292      0.5473     -0.0282
        30        -0.6136     -0.0221      0.0110      0.1736      0.0565      0.0025
        31         0.1420      0.0336      0.0191     -0.0514     -0.0521      0.0459
        32         0.9950     -0.1258     -0.0079      0.5589      0.0124     -0.0104
        33        -2.3373      0.3540      0.0074     -0.8059      0.0236      0.0445
        34        -0.1002     -0.1471      0.0018     -1.6241      0.0297     -0.0140
        35         0.8796      0.0938     -0.0274     -0.7113     -0.0842      0.1061
        36         1.2385     -0.0835     -0.0123     -0.2834     -0.0050      0.0441
        37         3.2775     -0.0325     -0.0445     -1.6398      0.0198      0.0058
        38         1.5291     -0.0922     -0.0202     -0.6022     -0.0306      0.0087
        39        -0.1722     -0.0691      0.0088     -0.3508     -0.0452      0.0361
        40        -0.3218     -0.0954      0.0371     -0.2223     -0.0129      0.0297
        41        -0.5087      0.1185     -0.0135     -0.7330     -0.1444      0.0279
        42        -0.2103      0.1714     -0.0090     -1.0890     -0.0780     -0.0066
        43        -4.1471      0.1150      0.0434     -0.7404      0.0205      0.0005
        44         2.2408     -0.1028     -0.0544      0.3386     -0.0555      0.0833
        45        -0.5712      0.1943     -0.0427      0.0813     -0.2286      0.0579
        46        -3.4543      0.3753      0.0195      1.1455      0.0300     -0.0106
        47         3.0260     -0.3099     -0.0497     -0.5120      0.0290     -0.0824
        48         1.8642     -0.3078     -0.0620     -0.7608     -0.0688      0.1110
        49         0.7500     -0.2410      0.0403     -0.2178      0.0530     -0.1195
        50        -3.6928      0.1379      0.0149     -2.5049      0.1305      0.0118
        51        -3.1999      0.2115      0.0240      0.8087     -0.0896     -0.1000
        52         1.2282     -0.0291     -0.0732     -0.1645      0.0473     -0.0274
        53        -0.9174      0.1540     -0.0052      0.2499     -0.0570     -0.0353
        54        -0.1348      0.0109     -0.0128      0.3046     -0.0397      0.0337
        55         1.2467     -0.4949     -0.0055      0.1312      0.2772     -0.0110
        56         0.4898     -0.0427      0.0562      0.1162      0.2405     -0.0702
        57        -0.1194      0.1185     -0.0453      0.1038      0.0936     -0.1668
        58        -0.3061     -0.1916     -0.0222      0.0820      0.0840     -0.0726
        59         0.2574     -0.0230      0.0172      0.0556      0.1885      0.0761
        60        -0.2296      0.0256     -0.0106      0.0141     -0.0945     -0.0804
 <0|del|b> * <b|rxdel|0> + <0|del|b> * <b|delr+rdel|0>
 Rotatory Strengths (R) in cgs (10**-40 erg-esu-cm/Gauss)
       state          XX          YY          ZZ    R(velocity)    E-M Angle
         1       -20.3379     11.9761   -193.3641    -67.2420       92.43
         2         9.2133     -7.6989     -3.5547     -0.6801       91.30
         3         0.7882     -3.8343      4.9117      0.6219       88.83
         4        -1.4822     -0.7449     -3.6152     -1.9475      115.20
         5        14.8278      1.8505     -0.3836      5.4315       67.16
         6         2.3204      6.7133      5.3057      4.7798       87.72
         7       -61.4942      4.6798    -36.9926    -31.2690      102.01
         8         7.2255     -3.3555    -12.4774     -2.8691       97.91
         9       144.8374     34.0383      1.3481     60.0746       71.07
        10       -32.1382      2.4551    -16.5922    -15.4251      110.11
        11       -34.9081     -7.3477     -8.6081    -16.9546      135.96
        12       -11.2119     -7.4744     -1.6779     -6.7881       98.65
        13       -37.0069     16.9547     -5.6113     -8.5545       97.49
        14        85.1051     -1.8330     12.4479     31.9067       72.27
        15       -26.9951    -18.5865    -29.6839    -25.0885      129.65
        16        -1.2914     -8.2527    -11.2092     -6.9178      160.18
        17        -4.8971     18.8243     19.6764     11.2012       59.46
        18        -4.4805      3.0978     15.0019      4.5397       84.94
        19        -3.8346      6.3905     -2.7412     -0.0618       90.00
        20         2.1175    -11.1311    -12.7212     -7.2449       94.04
        21        -3.3971      0.4490     -7.5638     -3.5040       97.73
        22       100.4935     -3.6575     -0.5816     32.0848       75.69
        23        -2.2095     -7.2032     -2.0542     -3.8223      117.81
        24        -3.6990      1.8279     -0.4272     -0.7661       96.91
        25        -6.1823     -2.6708     -1.5092     -3.4541       95.51
        26        -1.2104     -3.6033      1.6124     -1.0671      101.84
        27       -29.4319     -2.9688     -5.0848    -12.4952      107.70
        28      -111.1414      3.5877     -5.9169    -37.8236       96.05
        29      -225.7561      2.8971    -17.6652    -80.1748      109.35
        30        -3.2102      5.0619      3.5238      1.7918       81.22
        31         1.2509     -2.2376      0.0017     -0.3283      102.46
        32        13.8618      1.7943      0.7049      5.4536       75.28
        33        91.2250     17.3594      3.3965     37.3270       84.09
        34        29.2562      7.3365     15.7864     17.4597       85.67
        35       -10.2282     22.5828     15.0531      9.1359       66.20
        36         1.3752    -11.9511     -4.6131     -5.0630       98.67
        37       154.5705      1.9323      6.7466     54.4165       69.90
        38        48.8459      5.0367      6.9709     20.2845       52.36
        39         0.6380      0.5968     -0.2952      0.3132       85.78
        40        -3.5921     -1.6876     -0.0844     -1.7880      104.85
        41         9.3607     10.1858     -2.8703      5.5587       86.84
        42        -6.2724     16.2932     14.5925      8.2044       87.12
        43       -18.7009     -1.4213     -2.7641     -7.6288       97.05
        44         6.1692    -13.7294      4.3256     -1.0782       92.15
        45       -82.6161    -10.4536     -6.9199    -33.3299      139.01
        46        92.7590    -40.5441     -2.4008     16.6047       73.97
        47         1.0233    -21.2108      3.1052     -5.6941      111.46
        48         0.0863    171.9208    102.1846     91.3972        2.50
        49         8.2100    -53.8638     10.5646    -11.6964       94.79
        50       112.0174     22.0430     19.3563     51.1389       82.93
        51         7.1028    -13.6917     -0.7374     -2.4421       93.86
        52        -4.6101     22.5370     20.7639     12.8970       44.53
        53        -4.8099     -3.7692     -4.1476     -4.2422      122.13
        54        -0.5133      2.3866     -2.3548     -0.1605       90.53
        55       -63.5244     -0.0434      7.0906    -18.8257      153.69
        56        -1.5051      4.6872     -0.1860      0.9987       77.95
        57         4.4757      0.8362      2.9663      2.7594       23.53
        58        -1.2881      0.1884     -2.3962     -1.1653      104.34
        59        -5.5170     -4.7896     -1.9340     -4.0802      124.36
        60        -9.0423      1.4461      3.1680     -1.4761       99.60
 1/2[<0|r|b>*<b|rxdel|0> + (<0|rxdel|b>*<b|r|0>)*]
 Rotatory Strengths (R) in cgs (10**-40 erg-esu-cm/Gauss)
       state          XX          YY          ZZ     R(length)
         1      -169.2363    -44.4770      2.7217    -70.3305
         2       -13.2094      2.5553      9.0006     -0.5512
         3         1.0730     -6.5982     12.7620      2.4123
         4        -3.1061     -4.8977      1.7513     -2.0842
         5        -7.4177      4.6526     10.6000      2.6116
         6         9.4476     -1.1636      4.3537      4.2126
         7         7.8258   -109.6102      8.7701    -31.0047
         8       -18.8297     -1.0647     10.2019     -3.2308
         9        -9.0360     21.5833    166.6584     59.7352
        10         0.0886    -47.2595      5.1317    -14.0131
        11       -11.2357    -37.9391      0.6898    -16.1617
        12        -0.0132     -5.3486    -19.7560     -8.3726
        13        22.2629    -37.8707     -5.0482     -6.8854
        14        -6.9937     28.1202     65.3363     28.8209
        15       -27.7106    -50.8506      3.4820    -25.0264
        16       -19.8152     -5.1904     -0.0003     -8.3353
        17        43.1881     -2.0995      1.1382     14.0756
        18         3.6737     -3.2132     14.2566      4.9057
        19         5.3028      1.3530      0.5934      2.4164
        20       -29.5236    -14.3657     20.8122     -7.6923
        21         1.7802    -23.9212     11.9538     -3.3957
        22        -9.9466      5.3561     89.9498     28.4531
        23        -7.5944      0.3592      3.7119     -1.1744
        24         3.2667     -4.6807     -0.7184     -0.7108
        25        -3.2992     -8.6863      1.3141     -3.5571
        26         4.2364     -6.8693     -0.2808     -0.9712
        27        -0.4393    -40.0274      1.1480    -13.1063
        28         1.5191   -171.9035     46.7318    -41.2175
        29       -23.3440   -183.9155     -5.8064    -71.0220
        30         8.0629     -3.5495      0.9537      1.8223
        31        -2.0754      0.0127      0.4094     -0.5511
        32        -0.9137      2.3493     13.9289      5.1215
        33       -19.2020      0.9890    111.3048     31.0306
        34        33.0385     -9.1910     23.8529     15.9001
        35        38.5126     -0.6069     -0.4388     12.4890
        36       -19.0214     -0.8140      2.8594     -5.6587
        37        20.2546     -2.9930    139.3639     52.2085
        38         0.5428     11.0955     48.7529     20.1304
        39        -0.3478      1.9240     -1.0898      0.1621
        40        -1.3062      1.6693     -0.3253      0.0126
        41        10.1229     -4.3936      4.8901      3.5398
        42        35.1072      0.6592      6.8352     14.2005
        43        -0.9164     -8.2658      3.1343     -2.0159
        44       -12.4374     -0.8076      1.0880     -4.0523
        45       -12.4076    -92.9302      0.1484    -35.0631
        46       -35.2584     30.1932     49.2188     14.7179
        47        -1.6675    -12.6314     -3.9091     -6.0694
        48       267.7938     12.6627      1.2350     93.8972
        49       -65.7453      0.2032     26.2745    -13.0892
        50        20.9419    -28.3274    138.2860     43.6335
        51       -17.3859     15.2756     -3.5709     -1.8938
        52        39.4416      0.1768     -0.1477     13.1569
        53        -2.4112    -12.4986      4.5766     -3.4444
        54         5.0335    -12.2870      7.7610      0.1692
        55        -0.9836    -53.0872     -0.8494    -18.3068
        56         2.6998      1.4066     -0.0937      1.3375
        57        -0.2761      5.7846      1.2405      2.2497
        58        -1.8224     -3.0748      3.6264     -0.4236
        59        -9.8693     -3.1179     -0.7922     -4.5931
        60         1.9103     -8.9698      2.4038     -1.5519
  1/2[<0|del|b>*<b|r|0> + (<0|r|b>*<b|del|0>)*] (Au)
       state          X           Y           Z        Dip. S.   Osc.(frdel)
         1        -2.4764     -0.0034     -0.0000      2.4797      1.6531
         2        -0.0442     -0.0160     -0.0005      0.0607      0.0405
         3         0.0001     -0.0297     -0.0005      0.0300      0.0200
         4        -0.0052     -0.0046     -0.0002      0.0101      0.0067
         5        -0.0020     -0.0007     -0.0005      0.0032      0.0021
         6        -0.0550     -0.0002     -0.0000      0.0553      0.0368
         7        -0.0113     -0.0696     -0.0000      0.0809      0.0539
         8        -0.0042     -0.0000     -0.0002      0.0043      0.0029
         9        -0.0081     -0.0355     -0.0043      0.0479      0.0320
        10        -0.0122     -0.0252     -0.0001      0.0375      0.0250
        11        -0.0348     -0.0220     -0.0000      0.0569      0.0380
        12        -0.0008     -0.0345     -0.0006      0.0359      0.0239
        13        -0.1032     -0.0079     -0.0002      0.1113      0.0742
        14        -0.0074     -0.0417     -0.0025      0.0516      0.0344
        15        -0.0130     -0.0039      0.0001      0.0169      0.0112
        16        -0.0041     -0.0006      0.0000      0.0047      0.0031
        17        -0.0093      0.0000      0.0001      0.0092      0.0061
        18        -0.0041     -0.0588     -0.0005      0.0633      0.0422
        19        -0.0110     -0.0004      0.0000      0.0114      0.0076
        20        -0.0522     -0.0086     -0.0003      0.0611      0.0407
        21        -0.0195     -0.0089     -0.0010      0.0293      0.0195
        22        -0.0107     -0.0239     -0.0022      0.0368      0.0246
        23        -0.0090     -0.0000      0.0003      0.0087      0.0058
        24        -0.0162     -0.0037     -0.0000      0.0199      0.0133
        25        -0.0106     -0.0234     -0.0000      0.0340      0.0227
        26        -0.0100     -0.0029     -0.0004      0.0132      0.0088
        27        -0.1637     -0.0285     -0.0001      0.1922      0.1281
        28        -0.0142     -0.2087     -0.0005      0.2233      0.1489
        29        -0.2002     -0.0623     -0.0000      0.2626      0.1751
        30        -0.0199     -0.0008     -0.0000      0.0208      0.0138
        31        -0.0004     -0.0000     -0.0005      0.0010      0.0006
        32        -0.0022     -0.0003     -0.0001      0.0027      0.0018
        33        -0.1392     -0.0010     -0.0017      0.1419      0.0946
        34        -0.1427     -0.0054     -0.0002      0.1483      0.0989
        35        -0.0037     -0.0023     -0.0000      0.0060      0.0040
        36        -0.0172     -0.0083     -0.0000      0.0256      0.0170
        37        -0.0081     -0.0386     -0.0045      0.0512      0.0342
        38         0.0000     -0.0053     -0.0020      0.0072      0.0048
        39        -0.0003     -0.0006     -0.0000      0.0009      0.0006
        40        -0.0001     -0.0021     -0.0000      0.0022      0.0015
        41        -0.1454     -0.0004     -0.0001      0.1459      0.0973
        42        -0.1089     -0.0090      0.0000      0.1179      0.0786
        43        -0.0002     -0.0216      0.0000      0.0218      0.0145
        44        -0.0144     -0.0121     -0.0000      0.0265      0.0177
        45        -0.0095     -0.0632     -0.0000      0.0727      0.0485
        46        -0.0259     -0.0103     -0.0038      0.0400      0.0267
        47        -0.0438     -0.0076     -0.0005      0.0518      0.0346
        48        -0.1506     -0.0085     -0.0005      0.1596      0.1064
        49        -0.2707      0.0000     -0.0013      0.2720      0.1813
        50        -0.0184     -0.0755     -0.0013      0.0952      0.0634
        51        -0.0078     -0.0088     -0.0000      0.0167      0.0111
        52        -0.0107     -0.0093     -0.0001      0.0202      0.0134
        53        -0.0017     -0.0052     -0.0005      0.0075      0.0050
        54        -0.0049     -0.0168     -0.0007      0.0224      0.0149
        55        -0.0017     -0.0331     -0.0000      0.0348      0.0232
        56        -0.0023     -0.0000     -0.0001      0.0024      0.0016
        57        -0.0000     -0.0003     -0.0001      0.0005      0.0003
        58        -0.0002     -0.0010     -0.0001      0.0013      0.0009
        59        -0.0002     -0.0006     -0.0002      0.0010      0.0006
        60        -0.0002     -0.0082     -0.0001      0.0086      0.0057

 Excitation energies and oscillator strengths:
 
 Excited State   1:      Singlet-A      2.6271 eV  471.94 nm  f=1.6945  <S**2>=0.000
      96 -> 97         0.70749
 This state for optimization and/or second-order correction.
 Total Energy, E(TD-HF/TD-DFT) =  -1718.58660120    
 Copying the excited state density for this state as the 1-particle RhoCI density.
 
 Excited State   2:      Singlet-A      3.8728 eV  320.14 nm  f=0.0426  <S**2>=0.000
      95 -> 97         0.67411
      96 -> 99        -0.10605
 
 Excited State   3:      Singlet-A      3.9219 eV  316.14 nm  f=0.0209  <S**2>=0.000
      93 -> 97        -0.37983
      94 -> 97         0.56298
      96 -> 99         0.12675
 
 Excited State   4:      Singlet-A      4.0451 eV  306.50 nm  f=0.0072  <S**2>=0.000
      93 -> 97         0.54143
      94 -> 97         0.36299
      95 -> 97         0.12369
      96 -> 98         0.19862
      96 ->100        -0.10152
 
 Excited State   5:      Singlet-A      4.2063 eV  294.76 nm  f=0.0020  <S**2>=0.000
      96 -> 98         0.13647
      96 ->100         0.17014
      96 ->101         0.65485
 
 Excited State   6:      Singlet-A      4.3252 eV  286.65 nm  f=0.0392  <S**2>=0.000
      93 -> 97        -0.12271
      94 -> 97        -0.10225
      95 -> 97         0.11773
      96 -> 98         0.38772
      96 -> 99         0.49028
      96 ->100         0.18949
 
 Excited State   7:      Singlet-A      4.3312 eV  286.26 nm  f=0.0556  <S**2>=0.000
      93 -> 97        -0.15214
      96 -> 98         0.46141
      96 -> 99        -0.44545
      96 ->101        -0.18215
 
 Excited State   8:      Singlet-A      4.3658 eV  283.99 nm  f=0.0031  <S**2>=0.000
      96 ->100        -0.18964
      96 ->102         0.63451
      96 ->103         0.20570
 
 Excited State   9:      Singlet-A      4.5019 eV  275.40 nm  f=0.0322  <S**2>=0.000
      94 -> 97         0.12593
      96 -> 98        -0.19824
      96 ->100         0.59904
      96 ->101        -0.14153
      96 ->102         0.12962
 
 Excited State  10:      Singlet-A      4.7022 eV  263.68 nm  f=0.0225  <S**2>=0.000
      92 -> 97        -0.46682
      96 ->102        -0.16321
      96 ->103         0.49325
 
 Excited State  11:      Singlet-A      4.8398 eV  256.17 nm  f=0.0378  <S**2>=0.000
      92 -> 97         0.50426
      96 ->102        -0.14547
      96 ->103         0.42140
 
 Excited State  12:      Singlet-A      5.3619 eV  231.23 nm  f=0.0249  <S**2>=0.000
      89 -> 97         0.16298
      96 ->104         0.66787
 
 Excited State  13:      Singlet-A      5.5568 eV  223.12 nm  f=0.0781  <S**2>=0.000
      90 -> 97         0.13209
      92 -> 99        -0.11775
      93 -> 98         0.35953
      93 ->100         0.16420
      94 -> 98         0.20704
      94 -> 99         0.17753
      94 ->100        -0.23048
      94 ->101        -0.10647
      94 ->103        -0.11336
      95 -> 98         0.18434
      95 ->100        -0.22670
 
 Excited State  14:      Singlet-A      5.5870 eV  221.92 nm  f=0.0350  <S**2>=0.000
      91 -> 97         0.44143
      92 -> 98         0.11445
      93 -> 99        -0.28903
      94 -> 99        -0.12867
      94 ->100        -0.19838
      94 ->101        -0.15270
      95 ->100         0.18728
      95 ->102         0.11228
      95 ->103        -0.13384
 
 Excited State  15:      Singlet-A      5.6141 eV  220.85 nm  f=0.0121  <S**2>=0.000
      91 -> 97         0.18901
      93 ->101        -0.31932
      93 ->102         0.11900
      94 ->101         0.47545
      94 ->102        -0.16877
      94 ->103        -0.15202
      95 ->101         0.12553
 
 Excited State  16:      Singlet-A      5.6503 eV  219.43 nm  f=0.0037  <S**2>=0.000
      91 -> 97         0.35426
      92 -> 98        -0.10271
      93 -> 99         0.25178
      94 -> 99         0.14891
      94 ->100         0.18117
      94 ->101        -0.12407
      95 -> 98         0.12688
      95 -> 99         0.10661
      95 ->100        -0.11756
      95 ->101         0.20437
      95 ->102         0.21046
      95 ->103         0.24650
 
 Excited State  17:      Singlet-A      5.6590 eV  219.09 nm  f=0.0069  <S**2>=0.000
      91 -> 97        -0.29343
      93 -> 99        -0.12407
      95 ->101         0.30475
      95 ->102         0.46623
 
 Excited State  18:      Singlet-A      5.6765 eV  218.42 nm  f=0.0451  <S**2>=0.000
      90 -> 97         0.61352
      93 ->100        -0.15286
      94 -> 98        -0.17922
 
 Excited State  19:      Singlet-A      5.8828 eV  210.76 nm  f=0.0083  <S**2>=0.000
      92 ->102        -0.11885
      93 ->100         0.19357
      93 ->101         0.48821
      94 ->100         0.12049
      94 ->101         0.27638
      95 ->101         0.19042
 
 Excited State  20:      Singlet-A      5.9158 eV  209.58 nm  f=0.0422  <S**2>=0.000
      89 -> 97         0.22607
      90 -> 97         0.15468
      91 -> 97        -0.10610
      93 -> 98        -0.20656
      93 ->100         0.24891
      93 ->101        -0.22556
      94 -> 99        -0.14034
      94 ->100         0.10927
      94 ->101        -0.13364
      95 -> 98         0.33056
      95 -> 99         0.19361
      95 ->101        -0.10633
 
 Excited State  21:      Singlet-A      5.9397 eV  208.74 nm  f=0.0205  <S**2>=0.000
      89 -> 97         0.58126
      94 -> 98         0.12937
      95 -> 98        -0.21202
      95 -> 99        -0.21604
      96 ->104        -0.10547
 
 Excited State  22:      Singlet-A      5.9611 eV  207.99 nm  f=0.0252  <S**2>=0.000
      89 -> 97        -0.16756
      90 -> 97         0.17279
      91 -> 97         0.16405
      93 -> 98        -0.21215
      93 ->100         0.13930
      93 ->102        -0.10311
      93 ->103         0.11995
      94 -> 98         0.40455
      94 ->103         0.10291
      95 -> 98        -0.15966
      95 -> 99        -0.22685
 
 Excited State  23:      Singlet-A      6.0183 eV  206.01 nm  f=0.0063  <S**2>=0.000
      92 ->101        -0.18675
      93 ->102         0.44785
      93 ->103         0.16307
      94 ->102         0.36772
      94 ->103         0.13990
      95 ->102         0.19104
 
 Excited State  24:      Singlet-A      6.0673 eV  204.35 nm  f=0.0141  <S**2>=0.000
      93 -> 98         0.12623
      94 -> 98         0.18878
      95 -> 98        -0.40275
      95 -> 99         0.50239
 
 Excited State  25:      Singlet-A      6.1123 eV  202.84 nm  f=0.0238  <S**2>=0.000
      93 -> 98        -0.30222
      93 -> 99        -0.31328
      93 ->100        -0.14815
      94 -> 98         0.16357
      94 -> 99         0.49334
 
 Excited State  26:      Singlet-A      6.1381 eV  201.99 nm  f=0.0089  <S**2>=0.000
      96 ->105         0.67598
 
 Excited State  27:      Singlet-A      6.1563 eV  201.39 nm  f=0.1355  <S**2>=0.000
      93 -> 98         0.19905
      93 -> 99         0.12543
      94 -> 99         0.19475
      95 ->100         0.58125
      95 ->103         0.12049
      95 ->104         0.11551
 
 Excited State  28:      Singlet-A      6.1981 eV  200.03 nm  f=0.1534  <S**2>=0.000
      93 -> 98         0.20333
      93 -> 99        -0.28005
      93 ->100        -0.11522
      94 ->100         0.52194
      94 ->104         0.11104
      95 -> 99        -0.12377
 
 Excited State  29:      Singlet-A      6.2642 eV  197.92 nm  f=0.1714  <S**2>=0.000
      93 ->100         0.47596
      93 ->104         0.11291
      94 -> 98        -0.24483
      94 -> 99         0.19934
      94 ->100         0.12840
      95 -> 98        -0.20346
      95 -> 99        -0.13976
 
[...]
    35  H   -0.037212   0.375739  -0.035532  -0.000000   0.000000   0.000004
    36  H    0.004011  -0.035023   0.370414   0.000000   0.000000   0.001916
    37  H    0.000000   0.000000  -0.000000   0.390303  -0.040103   0.000000
    38  H    0.000000   0.000000  -0.000000   0.390439  -0.039782  -0.000000
    39  H   -0.000000  -0.000000   0.000000  -0.027609   0.380385  -0.000000
    40  H    0.000000   0.000000  -0.000000  -0.031545   0.388766  -0.000000
    41  H    0.000000   0.000000  -0.000000  -0.032149   0.389049  -0.000000
    42  H    0.000000  -0.000009   0.000143   0.000000  -0.000000   0.389463
    43  H   -0.000011   0.000168   0.004357   0.000000  -0.000000   0.388696
    44  H   -0.000000   0.000000   0.000016   0.000000   0.000000  -0.034037
    45  H   -0.000000  -0.000001  -0.000078   0.000000   0.000000  -0.027661
    46  H    0.000003  -0.000082   0.001130  -0.000000  -0.000000  -0.031423
              25         26         27         28         29         30
     1  C    0.000107   0.389902  -0.048404  -0.009063   0.000000  -0.000000
     2  C   -0.003216  -0.040777   0.381792  -0.041146   0.000000   0.000000
     3  C    0.000297  -0.006675  -0.046960   0.385125   0.000000   0.000000
     4  C    0.000852   0.000423  -0.006999  -0.038503   0.000000  -0.000000
     5  C   -0.000009  -0.043600  -0.008464   0.000449   0.000024  -0.000000
     6  S   -0.000245  -0.000002   0.000018  -0.003102  -0.000000  -0.000000
     7  C   -0.000348   0.000000   0.000002   0.000191   0.000000  -0.000000
     8  C   -0.001878  -0.000000  -0.000064  -0.000074   0.000000   0.000000
     9  N   -0.052715  -0.000002   0.000330   0.004107   0.000000   0.000000
    10  S    0.000158   0.003572   0.007588   0.000030  -0.002488  -0.000141
    11  C    0.000001   0.000027   0.000033   0.000000  -0.041145   0.005008
    12  C   -0.000000  -0.000134  -0.000009   0.000000   0.003274   0.000607
    13  N   -0.000000  -0.008795   0.000216   0.000002  -0.000119   0.000002
    14  C    0.000000   0.000002   0.000002   0.000000   0.378443  -0.039689
    15  C   -0.000000  -0.000000  -0.000000   0.000000  -0.032258   0.379647
    16  C    0.000000   0.000000   0.000000   0.000000   0.004199  -0.038372
    17  C   -0.000000   0.000000  -0.000000   0.000000   0.000679   0.004824
    18  C    0.000001   0.000000  -0.000000  -0.000001   0.000000   0.000000
    19  C    0.000000   0.000000   0.000000   0.000000   0.000000   0.000000
    20  C    0.000025  -0.000000   0.000000  -0.000000  -0.000000   0.000000
    21  C   -0.000771   0.000000   0.000001   0.000003  -0.000000  -0.000000
    22  C   -0.000000   0.003127   0.000002  -0.000004   0.000001  -0.000000
    23  C    0.000000  -0.000548  -0.000002  -0.000002  -0.000000   0.000000
    24  C    0.368028  -0.000001   0.000383  -0.000111  -0.000000  -0.000000
    25  C    4.946550  -0.000001   0.000362  -0.000011   0.000000  -0.000000
    26  H   -0.000001   0.544231   0.004511   0.004237   0.000000   0.000000
    27  H    0.000362   0.004511   0.576245   0.004946   0.000000   0.000000
    28  H   -0.000011   0.004237   0.004946   0.555054   0.000000  -0.000000
    29  H    0.000000   0.000000   0.000000   0.000000   0.551637  -0.005388
    30  H   -0.000000   0.000000   0.000000  -0.000000  -0.005388   0.571432
    31  H    0.000000  -0.000000  -0.000000  -0.000000  -0.000156  -0.005552
    32  H    0.000000  -0.000000   0.000000  -0.000000   0.000013  -0.000147
    33  H   -0.000000  -0.000000   0.000000   0.000000   0.000000   0.000000
    34  H    0.000000  -0.000000  -0.000000  -0.000000   0.000000   0.000000
    35  H   -0.000001   0.000000   0.000000   0.000000  -0.000000   0.000000
    36  H   -0.000419  -0.000000  -0.000000   0.000000   0.000000   0.000000
    37  H    0.000000  -0.000007  -0.000001   0.000005  -0.000000  -0.000000
    38  H    0.000000   0.000100   0.000000   0.000000   0.000000  -0.000000
    39  H    0.000000   0.000023   0.000000   0.000000   0.000000  -0.000000
    40  H   -0.000000  -0.000067  -0.000000   0.000000  -0.000000   0.000000
    41  H   -0.000000   0.001522   0.000002   0.000001   0.000000  -0.000000
    42  H   -0.041568  -0.000002  -0.001939  -0.000020   0.000000   0.000000
    43  H   -0.040949   0.000000   0.000176   0.000004  -0.000000  -0.000000
    44  H    0.389069   0.000000   0.002078  -0.000005   0.000000   0.000000
    45  H    0.380018   0.000000   0.000051   0.000000   0.000000  -0.000000
    46  H    0.387027   0.000000  -0.000202   0.000000   0.000000   0.000000
              31         32         33         34         35         36
     1  C   -0.000000   0.000004   0.000000  -0.000000   0.000000  -0.000000
     2  C   -0.000000   0.000000   0.000000   0.000000  -0.000000  -0.000000
     3  C   -0.000000   0.000000   0.000001  -0.000000  -0.000000   0.000005
     4  C    0.000000   0.000000   0.000024   0.000000   0.000002  -0.000116
     5  C    0.000002  -0.000129   0.000000  -0.000000   0.000000   0.000000
     6  S   -0.000000  -0.000000  -0.002628  -0.000141   0.000020  -0.000302
     7  C    0.000000   0.000000  -0.040728   0.005015   0.000918   0.005706
     8  C   -0.000000   0.000000   0.003301   0.000611   0.003311  -0.034747
     9  N   -0.000000   0.000000  -0.000121   0.000002  -0.000102  -0.008620
    10  S    0.000020  -0.000300  -0.000000   0.000000   0.000000  -0.000000
    11  C    0.000919   0.005714   0.000000  -0.000000   0.000000  -0.000000
    12  C    0.003305  -0.034960  -0.000000  -0.000000   0.000000  -0.000000
    13  N   -0.000103  -0.008413   0.000000   0.000000  -0.000000   0.000000
    14  C    0.004666   0.000347   0.000000   0.000000  -0.000000   0.000000
    15  C   -0.037360   0.004037   0.000000   0.000000   0.000000  -0.000000
    16  C    0.375673  -0.035436   0.000000   0.000000   0.000000  -0.000000
    17  C   -0.035679   0.370583   0.000000   0.000000   0.000000   0.000000
    18  C    0.000000   0.000000   0.378490  -0.039580   0.004646   0.000342
    19  C    0.000000   0.000000  -0.032368   0.379640  -0.037212   0.004011
    20  C    0.000000   0.000000   0.004203  -0.038266   0.375739  -0.035023
    21  C    0.000000   0.000000   0.000671   0.004824  -0.035532   0.370414
    22  C    0.000002   0.001402   0.000000   0.000000  -0.000000   0.000000
    23  C   -0.000001  -0.000078  -0.000000  -0.000000   0.000000   0.000000
    24  C    0.000000  -0.000000   0.000001  -0.000000   0.000004   0.001916
    25  C    0.000000   0.000000  -0.000000   0.000000  -0.000001  -0.000419
    26  H   -0.000000  -0.000000  -0.000000  -0.000000   0.000000  -0.000000
    27  H   -0.000000   0.000000   0.000000  -0.000000   0.000000  -0.000000
    28  H   -0.000000  -0.000000   0.000000  -0.000000   0.000000   0.000000
    29  H   -0.000156   0.000013   0.000000   0.000000  -0.000000   0.000000
    30  H   -0.005552  -0.000147   0.000000   0.000000   0.000000   0.000000
    31  H    0.569806  -0.005427   0.000000   0.000000   0.000000  -0.000000
    32  H   -0.005427   0.555080   0.000000   0.000000   0.000000   0.000000
    33  H    0.000000   0.000000   0.550273  -0.005376  -0.000156   0.000013
    34  H    0.000000   0.000000  -0.005376   0.569984  -0.005536  -0.000146
    35  H    0.000000   0.000000  -0.000156  -0.005536   0.568299  -0.005417
    36  H   -0.000000   0.000000   0.000013  -0.000146  -0.005417   0.552684
    37  H   -0.000000  -0.000004   0.000000  -0.000000   0.000000  -0.000000
    38  H    0.000005   0.001342   0.000000   0.000000   0.000000   0.000000
    39  H    0.000000   0.000036   0.000000  -0.000000   0.000000  -0.000000
    40  H   -0.000002   0.000844  -0.000000   0.000000  -0.000000  -0.000000
    41  H    0.000000  -0.000032   0.000000   0.000000  -0.000000   0.000000
    42  H   -0.000000   0.000000  -0.000000  -0.000000  -0.000000   0.000021
    43  H    0.000000  -0.000000   0.000000  -0.000000   0.000004   0.000901
    44  H    0.000000   0.000000   0.000000  -0.000000   0.000000  -0.000057
    45  H    0.000000   0.000000   0.000000  -0.000000  -0.000000   0.000077
    46  H   -0.000000   0.000000  -0.000000  -0.000000  -0.000002   0.001464
              37         38         39         40         41         42
     1  C    0.004856   0.000009  -0.000024   0.000029   0.000920   0.000125
     2  C    0.000361  -0.000014   0.000001   0.000002  -0.000113   0.003821
     3  C   -0.000022   0.000000   0.000000  -0.000000  -0.000008   0.002996
     4  C   -0.000000   0.000000   0.000000  -0.000000  -0.000000  -0.003875
     5  C   -0.008060   0.005295  -0.000095  -0.000140   0.003165  -0.000042
     6  S    0.000000  -0.000000  -0.000000   0.000000   0.000000   0.000130
     7  C   -0.000000   0.000000   0.000000  -0.000000  -0.000000  -0.000224
     8  C   -0.000000  -0.000000  -0.000000  -0.000000  -0.000000   0.004137
     9  N    0.000000   0.000000  -0.000000   0.000000   0.000000  -0.037017
    10  S   -0.000002  -0.000238   0.000004   0.000010  -0.000098   0.000195
    11  C   -0.000272   0.000105   0.000007  -0.000115   0.000005  -0.000000
    12  C    0.004113  -0.007748  -0.000038   0.002622  -0.000169  -0.000000
    13  N   -0.033007  -0.032643   0.003963  -0.004252  -0.004785   0.000000
    14  C    0.000002  -0.000003   0.000000  -0.000004  -0.000000  -0.000000
    15  C    0.000000  -0.000010  -0.000000   0.000003  -0.000000   0.000000
    16  C   -0.000008   0.000200   0.000000  -0.000069   0.000001   0.000000
    17  C    0.000144   0.004092  -0.000064   0.001134   0.000014  -0.000000
    18  C   -0.000000  -0.000000   0.000000  -0.000000  -0.000000   0.000003
    19  C    0.000000   0.000000  -0.000000   0.000000   0.000000   0.000000
    20  C    0.000000   0.000000  -0.000000   0.000000   0.000000  -0.000009
    21  C   -0.000000  -0.000000   0.000000  -0.000000  -0.000000   0.000143
    22  C    0.390303   0.390439  -0.027609  -0.031545  -0.032149   0.000000
    23  C   -0.040103  -0.039782   0.380385   0.388766   0.389049  -0.000000
    24  C    0.000000  -0.000000  -0.000000  -0.000000  -0.000000   0.389463
    25  C    0.000000   0.000000   0.000000  -0.000000  -0.000000  -0.041568
    26  H   -0.000007   0.000100   0.000023  -0.000067   0.001522  -0.000002
    27  H   -0.000001   0.000000   0.000000  -0.000000   0.000002  -0.001939
    28  H    0.000005   0.000000   0.000000   0.000000   0.000001  -0.000020
    29  H   -0.000000   0.000000   0.000000  -0.000000   0.000000   0.000000
    30  H   -0.000000  -0.000000  -0.000000   0.000000  -0.000000   0.000000
    31  H   -0.000000   0.000005   0.000000  -0.000002   0.000000  -0.000000
    32  H   -0.000004   0.001342   0.000036   0.000844  -0.000032   0.000000
    33  H    0.000000   0.000000   0.000000  -0.000000   0.000000  -0.000000
    34  H   -0.000000   0.000000  -0.000000   0.000000   0.000000  -0.000000
    35  H    0.000000   0.000000   0.000000  -0.000000  -0.000000  -0.000000
    36  H   -0.000000   0.000000  -0.000000  -0.000000   0.000000   0.000021
    37  H    0.552378  -0.028098  -0.001434   0.004552  -0.005560  -0.000000
    38  H   -0.028098   0.549268  -0.001477  -0.005321   0.004533  -0.000000
    39  H   -0.001434  -0.001477   0.563206  -0.026448  -0.026320  -0.000000
    40  H    0.004552  -0.005321  -0.026448   0.565653  -0.029827   0.000000
    41  H   -0.005560   0.004533  -0.026320  -0.029827   0.565860   0.000000
    42  H   -0.000000  -0.000000  -0.000000   0.000000   0.000000   0.553438
    43  H   -0.000000  -0.000000  -0.000000   0.000000   0.000000  -0.025297
    44  H   -0.000000  -0.000000  -0.000000  -0.000000  -0.000000  -0.004965
    45  H   -0.000000  -0.000000  -0.000000   0.000000   0.000000  -0.001627
    46  H    0.000000   0.000000  -0.000000   0.000000   0.000000   0.004576
              43         44         45         46
     1  C   -0.000007   0.000023  -0.000001  -0.000001
     2  C    0.000125  -0.000155   0.000067   0.000066
     3  C    0.000327  -0.000128  -0.000025   0.000001
     4  C    0.003856   0.002002  -0.000113  -0.000159
     5  C   -0.000000  -0.000016  -0.000002   0.000000
     6  S   -0.000228  -0.000084   0.000007   0.000014
     7  C    0.000178   0.000004   0.000006  -0.000091
     8  C   -0.006690  -0.000068   0.000006   0.002348
     9  N   -0.034563  -0.003597   0.003826  -0.004135
    10  S    0.000005   0.000407   0.000241  -0.000004
    11  C    0.000000   0.000001   0.000000  -0.000000
    12  C   -0.000000  -0.000000  -0.000000   0.000000
    13  N   -0.000000  -0.000000  -0.000000   0.000000
    14  C    0.000000  -0.000000  -0.000000   0.000000
    15  C    0.000000  -0.000000  -0.000000  -0.000000
    16  C    0.000000   0.000000   0.000000  -0.000000
    17  C   -0.000000  -0.000000  -0.000000  -0.000000
    18  C   -0.000013  -0.000000  -0.000000  -0.000004
    19  C   -0.000011  -0.000000  -0.000000   0.000003
    20  C    0.000168   0.000000  -0.000001  -0.000082
    21  C    0.004357   0.000016  -0.000078   0.001130
    22  C    0.000000   0.000000   0.000000  -0.000000
    23  C   -0.000000   0.000000   0.000000  -0.000000
    24  C    0.388696  -0.034037  -0.027661  -0.031423
    25  C   -0.040949   0.389069   0.380018   0.387027
    26  H    0.000000   0.000000   0.000000   0.000000
    27  H    0.000176   0.002078   0.000051  -0.000202
    28  H    0.000004  -0.000005   0.000000   0.000000
    29  H   -0.000000   0.000000   0.000000   0.000000
    30  H   -0.000000   0.000000  -0.000000   0.000000
    31  H    0.000000   0.000000   0.000000  -0.000000
    32  H   -0.000000   0.000000   0.000000   0.000000
    33  H    0.000000   0.000000   0.000000  -0.000000
    34  H   -0.000000  -0.000000  -0.000000  -0.000000
    35  H    0.000004   0.000000  -0.000000  -0.000002
    36  H    0.000901  -0.000057   0.000077   0.001464
    37  H   -0.000000  -0.000000  -0.000000   0.000000
    38  H   -0.000000  -0.000000  -0.000000   0.000000
    39  H   -0.000000  -0.000000  -0.000000  -0.000000
    40  H    0.000000  -0.000000   0.000000   0.000000
    41  H    0.000000  -0.000000   0.000000   0.000000
    42  H   -0.025297  -0.004965  -0.001627   0.004576
    43  H    0.549327   0.004529  -0.001083  -0.005600
    44  H    0.004529   0.561970  -0.026316  -0.028226
    45  H   -0.001083  -0.026316   0.559761  -0.026120
    46  H   -0.005600  -0.028226  -0.026120   0.564289
 Mulliken charges:
               1
     1  C   -0.151971
     2  C   -0.046783
     3  C   -0.163212
     4  C    0.127631
     5  C    0.120709
     6  S    0.284175
     7  C   -0.186087
     8  C    0.358715
     9  N   -0.518965
    10  S    0.282341
    11  C   -0.188127
    12  C    0.362474
    13  N   -0.524975
    14  C   -0.132303
    15  C   -0.092059
    16  C   -0.125913
    17  C   -0.100814
    18  C   -0.130737
    19  C   -0.089734
    20  C   -0.126204
    21  C   -0.097946
    22  C   -0.081698
    23  C   -0.330277
    24  C   -0.091982
    25  C   -0.330364
    26  H    0.148933
    27  H    0.134306
    28  H    0.137888
    29  H    0.143282
    30  H    0.127770
    31  H    0.129882
    32  H    0.145524
    33  H    0.144401
    34  H    0.128968
    35  H    0.131017
    36  H    0.147294
    37  H    0.159863
    38  H    0.159947
    39  H    0.135885
    40  H    0.134176
    41  H    0.133990
    42  H    0.157538
    43  H    0.161790
    44  H    0.137556
    45  H    0.138966
    46  H    0.135130
 Sum of Mulliken charges =   1.00000
 Mulliken charges with hydrogens summed into heavy atoms:
               1
     1  C   -0.003038
     2  C    0.087522
     3  C   -0.025324
     4  C    0.127631
     5  C    0.120709
     6  S    0.284175
     7  C   -0.186087
     8  C    0.358715
     9  N   -0.518965
    10  S    0.282341
    11  C   -0.188127
    12  C    0.362474
    13  N   -0.524975
    14  C    0.010979
    15  C    0.035712
    16  C    0.003969
    17  C    0.044710
    18  C    0.013664
    19  C    0.039234
    20  C    0.004812
    21  C    0.049348
    22  C    0.238112
    23  C    0.073774
    24  C    0.227345
    25  C    0.081289
 Electronic spatial extent (au):  <R**2>=          15554.8030
 Charge=              1.0000 electrons
 Dipole moment (field-independent basis, Debye):
    X=              1.1778    Y=              0.2198    Z=              1.2519  Tot=              1.7329
 Quadrupole moment (field-independent basis, Debye-Ang):
   XX=            -48.8449   YY=           -124.5503   ZZ=           -163.0263
   XY=             15.3267   XZ=              1.5078   YZ=              0.9215
 Traceless Quadrupole moment (field-independent basis, Debye-Ang):
   XX=             63.2956   YY=            -12.4098   ZZ=            -50.8858
   XY=             15.3267   XZ=              1.5078   YZ=              0.9215
 Octapole moment (field-independent basis, Debye-Ang**2):
  XXX=              6.6418  YYY=             -2.6545  ZZZ=              3.5926  XYY=             29.2701
  XXY=             -6.0063  XXZ=             -5.9217  XZZ=              2.4309  YZZ=              2.6544
  YYZ=              4.2162  XYZ=             27.3597
 Hexadecapole moment (field-independent basis, Debye-Ang**3):
 XXXX=         -13299.3672 YYYY=          -2292.7608 ZZZZ=           -306.6448 XXXY=             95.7700
 XXXZ=            147.4549 YYYX=             86.9193 YYYZ=             15.6534 ZZZX=             -0.7860
 ZZZY=             -2.3722 XXYY=          -2829.6219 XXZZ=          -3322.6725 YYZZ=           -484.9317
 XXYZ=             20.1936 YYXZ=            -11.5376 ZZXY=             35.8608
 N-N= 2.285648745017D+03 E-N=-8.575259831716D+03  KE= 1.707297499567D+03
 Unable to Open any file for archive entry.
 1\1\GINC-ZCWANG-VIRTUAL-MACHINE\SP\RB3LYP TD-FC\6-31G(d,p)\C21H21N2S2(
 1+)\ZCWANG\31-Oct-2023\0\\# td=(nstates=60) b3lyp/6-31g(d,p) scrf(smd,
  solvent=ethanol)\\A-2\\1,1\C,0,1.185932,1.124188,0.259065\C,0,-0.0640
 42,0.518894,0.184736\C,0,-1.255062,1.232433,0.206071\C,0,-2.576908,0.7
 75971,0.134368\C,0,2.392634,0.431471,0.171283\S,0,-3.827667,1.970009,-
 0.187075\C,0,-5.077877,0.744792,-0.134775\C,0,-4.509195,-0.50864,0.113
 846\N,0,-3.118372,-0.458179,0.279721\S,0,2.505198,-1.300121,-0.125106\
 C,0,4.260315,-1.225762,-0.102553\C,0,4.688784,0.08701,0.119416\N,0,3.6
 27512,0.981655,0.287411\C,0,5.159317,-2.267461,-0.279503\C,0,6.517913,
 -1.973596,-0.237257\C,0,6.95394,-0.663841,-0.025333\C,0,6.051566,0.378
 213,0.153458\C,0,-6.446804,0.904176,-0.304215\C,0,-7.251229,-0.226106,
 -0.226408\C,0,-6.689747,-1.482485,0.014868\C,0,-5.320051,-1.640504,0.1
 8625\C,0,3.847144,2.415669,0.55458\C,0,3.911762,3.249637,-0.717632\C,0
 ,-2.369369,-1.660308,0.692423\C,0,-1.918854,-2.522991,-0.47911\H,0,1.2
 28852,2.199196,0.376562\H,0,-0.096636,-0.556945,0.072235\H,0,-1.165193
 ,2.31437,0.224199\H,0,4.813961,-3.279951,-0.448352\H,0,7.240415,-2.768
 718,-0.37396\H,0,8.015538,-0.449707,-0.002068\H,0,6.406822,1.388085,0.
 306065\H,0,-6.875736,1.880738,-0.491225\H,0,-8.32188,-0.129159,-0.3574
 31\H,0,-7.330326,-2.354283,0.06736\H,0,-4.901973,-2.621689,0.363736\H,
 0,3.048585,2.754296,1.212168\H,0,4.77271,2.494849,1.122044\H,0,4.08253
 8,4.295496,-0.452515\H,0,4.728911,2.924468,-1.364544\H,0,2.978199,3.18
 7215,-1.279982\H,0,-1.531667,-1.329317,1.302601\H,0,-3.027666,-2.22470
 2,1.351768\H,0,-1.2761,-1.972556,-1.168349\H,0,-1.359149,-3.379171,-0.
 096017\H,0,-2.775672,-2.899604,-1.040801\\Version=ES64L-G16RevC.02\Sta
 te=1-A\HF=-1718.6831467\RMSD=7.212e-09\PG=C01 [X(C21H21N2S2)]\\@
 The archive entry for this job was punched.


 MICHAEL FARADAY, ASKED BY A POLITICIAN WHAT GOOD
 HIS ELECTRICAL DISCOVERIES WERE, REPLIED 
 "AT PRESENT I DO NOT KNOW, BUT ONE DAY YOU WILL BE
 ABLE TO TAX THEM."
 Job cpu time:       1 days  4 hours 14 minutes 59.4 seconds.
 Elapsed time:       0 days  2 hours  3 minutes 53.7 seconds.
 File lengths (MBytes):  RWF=   6507 Int=      0 D2E=      0 Chk=    472 Scr=      1
 Normal termination of Gaussian 16 at Tue Oct 31 15:19:51 2023.
