 Entering Link 1 = D:\G09W\l1.exe PID=     29192.
  
 Copyright (c) 1988,1990,1992,1993,1995,1998,2003,2009, Gaussian, Inc.
                  All Rights Reserved.
  
 This is part of the Gaussian(R) 09 program.  It is based on
 the Gaussian(R) 03 system (copyright 2003, Gaussian, Inc.),
 the Gaussian(R) 98 system (copyright 1998, Gaussian, Inc.),
 the Gaussian(R) 94 system (copyright 1995, Gaussian, Inc.),
 the Gaussian 92(TM) system (copyright 1992, Gaussian, Inc.),
 the Gaussian 90(TM) system (copyright 1990, Gaussian, Inc.),
 the Gaussian 88(TM) system (copyright 1988, Gaussian, Inc.),
 the Gaussian 86(TM) system (copyright 1986, Carnegie Mellon
 University), and the Gaussian 82(TM) system (copyright 1983,
 Carnegie Mellon University). Gaussian is a federally registered
 trademark of Gaussian, Inc.
  
 This software contains proprietary and confidential information,
 including trade secrets, belonging to Gaussian, Inc.
  
 This software is provided under written license and may be
 used, copied, transmitted, or stored only in accord with that
 written license.
  
 The following legend is applicable only to US Government
 contracts under FAR:
  
                    RESTRICTED RIGHTS LEGEND
  
 Use, reproduction and disclosure by the US Government is
 subject to restrictions as set forth in subparagraphs (a)
 and (c) of the Commercial Computer Software - Restricted
 Rights clause in FAR 52.227-19.
  
 Gaussian, Inc.
 340 Quinnipiac St., Bldg. 40, Wallingford CT 06492
  
  
 ---------------------------------------------------------------
 Warning -- This program may not be used in any manner that
 competes with the business of Gaussian, Inc. or will provide
 assistance to any competitor of Gaussian, Inc.  The licensee
 of this program is prohibited from giving any competitor of
 Gaussian, Inc. access to this program.  By using this program,
 the user acknowledges that Gaussian, Inc. is engaged in the
 business of creating and licensing software in the field of
 computational chemistry and represents and warrants to the
 licensee that it is not a competitor of Gaussian, Inc. and that
 it will not use this program in any manner prohibited above.
 ---------------------------------------------------------------
  

 Cite this work as:
 Gaussian 09, Revision A.02,
 M. J. Frisch, G. W. Trucks, H. B. Schlegel, G. E. Scuseria, 
 M. A. Robb, J. R. Cheeseman, G. Scalmani, V. Barone, B. Mennucci, 
 G. A. Petersson, H. Nakatsuji, M. Caricato, X. Li, H. P. Hratchian, 
 A. F. Izmaylov, J. Bloino, G. Zheng, J. L. Sonnenberg, M. Hada, 
 M. Ehara, K. Toyota, R. Fukuda, J. Hasegawa, M. Ishida, T. Nakajima, 
 Y. Honda, O. Kitao, H. Nakai, T. Vreven, J. A. Montgomery, Jr., 
 J. E. Peralta, F. Ogliaro, M. Bearpark, J. J. Heyd, E. Brothers, 
 K. N. Kudin, V. N. Staroverov, R. Kobayashi, J. Normand, 
 K. Raghavachari, A. Rendell, J. C. Burant, S. S. Iyengar, J. Tomasi, 
 M. Cossi, N. Rega, J. M. Millam, M. Klene, J. E. Knox, J. B. Cross, 
 V. Bakken, C. Adamo, J. Jaramillo, R. Gomperts, R. E. Stratmann, 
 O. Yazyev, A. J. Austin, R. Cammi, C. Pomelli, J. W. Ochterski, 
 R. L. Martin, K. Morokuma, V. G. Zakrzewski, G. A. Voth, 
 P. Salvador, J. J. Dannenberg, S. Dapprich, A. D. Daniels, 
 O. Farkas, J. B. Foresman, J. V. Ortiz, J. Cioslowski, 
 and D. J. Fox, Gaussian, Inc., Wallingford CT, 2009.
 
 ******************************************
 Gaussian 09:  IA32W-G09RevA.02 11-Jun-2009
                25-Oct-2023 
 ******************************************
 %nproc=4
 Will use up to    4 processors via shared memory.
 %mem=1175MB
 -----------------------
 # opt freq b3lyp/6-31g*
 -----------------------
 1/14=-1,18=20,19=15,26=3,38=1/1,3;
 2/9=110,12=2,17=6,18=5,40=1/2;
 3/5=1,6=6,7=1,11=2,16=1,25=1,30=1,71=1,74=-5/1,2,3;
 4//1;
 5/5=2,38=5/2;
 6/7=2,8=2,9=2,10=2,28=1/1;
 7//1,2,3,16;
 1/14=-1,18=20,19=15/3(2);
 2/9=110/2;
 99//99;
 2/9=110/2;
 3/5=1,6=6,7=1,11=2,16=1,25=1,30=1,71=1,74=-5/1,2,3;
 4/5=5,16=3/1;
 5/5=2,38=5/2;
 7//1,2,3,16;
 1/14=-1,18=20,19=15/3(-5);
 2/9=110/2;
 6/7=2,8=2,9=2,10=2,19=2,28=1/1;
 99/9=1/99;
 ---
 B-1
 ---
 Symbolic Z-matrix:
 Charge =  0 Multiplicity = 1
 C                    0    -5.18948  -12.6597   1.77012 
 C                    0    -4.46585  -13.3642   2.91195 
 C                    0    -2.98713  -13.3993   2.54097 
 C                    0    -2.44909  -12.0632   2.07343 
 C                    0    -3.22349  -11.0048   1.71713 
 C                    0    -4.75598  -11.1756   1.62611 
 C                    0    -2.59436  -9.8252    1.48954 
 C                    0    -3.08708  -8.60884   1.18827 
 C                    0    -2.37298  -7.47411   0.98941 
 C                    0    -3.05941  -6.33543   0.73467 
 C                    0    -2.56714  -5.09675   0.54027 
 C                    0    -3.35189  -4.02738   0.30216 
 C                    0    -2.93021  -2.75502   0.11425 
 C                    0    -3.87029  -1.80378  -0.08979 
 C                    0    -3.68435  -0.48202  -0.26704 
 C                    0    -4.70227   0.38126  -0.45502 
 C                    0    -4.51753   1.70568  -0.61232 
 C                    0    -5.45865   2.65964  -0.79791 
 C                    0    -5.04224   3.94346  -0.89979 
 C                    0    -5.83131   5.02354  -1.06338 
 C                    0    -5.34592   6.27772  -1.14014 
 C                    0    -6.03826   7.43095  -1.29292 
 C                    0    -5.33575   8.58997  -1.30791 
 C                    0    -5.84089   9.83386  -1.41106 
 C                    0    -5.22522   11.0421  -1.42247 
 C                    0    -3.69141   11.2089  -1.34662 
 C                    0    -5.31174  -10.7804   0.23309 
 C                    0    -5.46259  -10.3724   2.74269 
 C                    0    -0.92796  -12.0795   2.08145 
 C                    0    -3.25215   12.685   -1.54526 
 C                    0    -4.11007   13.6554  -0.74149 
 C                    0    -5.52378   13.5651  -1.3061 
 C                    0    -6.01977   12.1436  -1.46966 
 C                    0    -2.95991   10.4665  -2.49531 
 C                    0    -3.15846   10.7444   0.02867 
 C                    0    -7.52726   12.1352  -1.67356 
 C                    0    -7.5504    7.45777  -1.44223 
 C                    0    -6.94169   2.34461  -0.88619 
 C                    0    -1.44343  -2.44703   0.14685 
 C                    0    -0.85526  -7.51028   1.05914 
 H                    0    -4.96413  -13.2231   0.83271 
 H                    0    -6.29189  -12.7415   1.91895 
 H                    0    -4.85313  -14.4016   3.05164 
 H                    0    -4.62102  -12.8276   3.87536 
 H                    0    -2.81015  -14.1465   1.73121 
 H                    0    -2.42012  -13.7374   3.44153 
 H                    0    -1.50286  -9.82005   1.59646 
 H                    0    -4.17497  -8.51176   1.11364 
 H                    0    -4.16175  -6.40897   0.68826 
 H                    0    -1.48286  -4.93911   0.58705 
 H                    0    -4.43927  -4.22245   0.26985 
 H                    0    -4.9261   -2.13209  -0.10601 
 H                    0    -2.66749  -0.06364  -0.25333 
 H                    0    -5.7192   -0.03694  -0.46829 
 H                    0    -3.46334   2.03706  -0.57219 
 H                    0    -3.95701   4.14234  -0.83505 
 H                    0    -6.91476   4.86482  -1.12403 
 H                    0    -4.24624   6.35565  -1.0543 
 H                    0    -4.24986   8.4955   -1.20546 
 H                    0    -6.93671   9.83844  -1.45599 
 H                    0    -4.75198  -11.2958  -0.58057 
 H                    0    -6.3847   -11.0625   0.13366 
 H                    0    -5.29055  -9.69962  -0.0026 
 H                    0    -5.34353  -9.27397   2.65112 
 H                    0    -6.5608   -10.5548   2.74304 
 H                    0    -5.076    -10.6406   3.75045 
 H                    0    -0.53169  -13.1176   2.01508 
 H                    0    -0.47216  -11.5721   1.20329 
 H                    0    -0.53942  -11.6371   3.02696 
 H                    0    -2.17869   12.8225  -1.27506 
 H                    0    -3.33685   12.9743  -2.62047 
 H                    0    -3.72478   14.6991  -0.83159 
 H                    0    -4.09785   13.3974   0.34181 
 H                    0    -5.57434   14.0665  -2.30185 
 H                    0    -6.20095   14.1211  -0.61391 
 H                    0    -1.87802   10.7304  -2.5194 
 H                    0    -2.97033   9.36174  -2.43559 
 H                    0    -3.39378   10.737   -3.48509 
 H                    0    -3.28504   9.65929   0.21738 
 H                    0    -2.06712   10.9398   0.12969 
 H                    0    -3.67294   11.2643   0.86648 
 H                    0    -7.89016   13.111   -2.06743 
 H                    0    -7.86942   11.4044  -2.43857 
 H                    0    -8.04935   11.9541  -0.70646 
 H                    0    -7.84801   8.02376  -2.354 
 H                    0    -8.03977   6.47261  -1.57172 
 H                    0    -8.01921   7.92571  -0.5465 
 H                    0    -7.36753   2.73208  -1.83961 
 H                    0    -7.20801   1.26952  -0.87924 
 H                    0    -7.48566   2.80242  -0.02859 
 H                    0    -1.0293   -2.64917   1.16105 
 H                    0    -0.8995   -3.06665  -0.60193 
 H                    0    -1.16096  -1.40427  -0.09739 
 H                    0    -0.33561  -6.58615   0.73863 
 H                    0    -0.52081  -7.71292   2.1023 
 H                    0    -0.44638  -8.29317   0.3808 
 

 GradGradGradGradGradGradGradGradGradGradGradGradGradGradGradGradGradGrad
 Berny optimization.
 Initialization pass.
                           ----------------------------
                           !    Initial Parameters    !
                           ! (Angstroms and Degrees)  !
 --------------------------                            --------------------------
 ! Name  Definition              Value          Derivative Info.                !
 --------------------------------------------------------------------------------
 ! R1    R(1,2)                  1.5244         estimate D2E/DX2                !
 ! R2    R(1,6)                  1.5528         estimate D2E/DX2                !
 ! R3    R(1,41)                 1.1167         estimate D2E/DX2                !
 ! R4    R(1,42)                 1.1154         estimate D2E/DX2                !
 ! R5    R(2,3)                  1.5249         estimate D2E/DX2                !
 ! R6    R(2,43)                 1.1161         estimate D2E/DX2                !
 ! R7    R(2,44)                 1.1136         estimate D2E/DX2                !
 ! R8    R(3,4)                  1.5143         estimate D2E/DX2                !
 ! R9    R(3,45)                 1.1159         estimate D2E/DX2                !
 ! R10   R(3,46)                 1.1166         estimate D2E/DX2                !
 ! R11   R(4,5)                  1.359          estimate D2E/DX2                !
 ! R12   R(4,29)                 1.5212         estimate D2E/DX2                !
 ! R13   R(5,6)                  1.5447         estimate D2E/DX2                !
 ! R14   R(5,7)                  1.3561         estimate D2E/DX2                !
 ! R15   R(6,27)                 1.551          estimate D2E/DX2                !
 ! R16   R(6,28)                 1.5463         estimate D2E/DX2                !
 ! R17   R(7,8)                  1.3465         estimate D2E/DX2                !
 ! R18   R(7,47)                 1.0967         estimate D2E/DX2                !
 ! R19   R(8,9)                  1.3554         estimate D2E/DX2                !
 ! R20   R(8,48)                 1.0948         estimate D2E/DX2                !
 ! R21   R(9,10)                 1.3538         estimate D2E/DX2                !
 ! R22   R(9,40)                 1.5197         estimate D2E/DX2                !
 ! R23   R(10,11)                1.347          estimate D2E/DX2                !
 ! R24   R(10,49)                1.1058         estimate D2E/DX2                !
 ! R25   R(11,12)                1.3476         estimate D2E/DX2                !
 ! R26   R(11,50)                1.0967         estimate D2E/DX2                !
 ! R27   R(12,13)                1.3535         estimate D2E/DX2                !
 ! R28   R(12,51)                1.1052         estimate D2E/DX2                !
 ! R29   R(13,14)                1.3529         estimate D2E/DX2                !
 ! R30   R(13,39)                1.5187         estimate D2E/DX2                !
 ! R31   R(14,15)                1.3465         estimate D2E/DX2                !
 ! R32   R(14,52)                1.1058         estimate D2E/DX2                !
 ! R33   R(15,16)                1.3479         estimate D2E/DX2                !
 ! R34   R(15,53)                1.0997         estimate D2E/DX2                !
 ! R35   R(16,17)                1.3465         estimate D2E/DX2                !
 ! R36   R(16,54)                1.0996         estimate D2E/DX2                !
 ! R37   R(17,18)                1.3528         estimate D2E/DX2                !
 ! R38   R(17,55)                1.1058         estimate D2E/DX2                !
 ! R39   R(18,19)                1.3535         estimate D2E/DX2                !
 ! R40   R(18,38)                1.5187         estimate D2E/DX2                !
 ! R41   R(19,20)                1.3476         estimate D2E/DX2                !
 ! R42   R(19,56)                1.1052         estimate D2E/DX2                !
 ! R43   R(20,21)                1.347          estimate D2E/DX2                !
 ! R44   R(20,57)                1.0967         estimate D2E/DX2                !
 ! R45   R(21,22)                1.3537         estimate D2E/DX2                !
 ! R46   R(21,58)                1.1058         estimate D2E/DX2                !
 ! R47   R(22,23)                1.3554         estimate D2E/DX2                !
 ! R48   R(22,37)                1.5197         estimate D2E/DX2                !
 ! R49   R(23,24)                1.3465         estimate D2E/DX2                !
 ! R50   R(23,59)                1.0948         estimate D2E/DX2                !
 ! R51   R(24,25)                1.3561         estimate D2E/DX2                !
 ! R52   R(24,60)                1.0968         estimate D2E/DX2                !
 ! R53   R(25,26)                1.5447         estimate D2E/DX2                !
 ! R54   R(25,33)                1.359          estimate D2E/DX2                !
 ! R55   R(26,30)                1.5528         estimate D2E/DX2                !
 ! R56   R(26,34)                1.551          estimate D2E/DX2                !
 ! R57   R(26,35)                1.5464         estimate D2E/DX2                !
 ! R58   R(27,61)                1.114          estimate D2E/DX2                !
 ! R59   R(27,62)                1.1139         estimate D2E/DX2                !
 ! R60   R(27,63)                1.1064         estimate D2E/DX2                !
 ! R61   R(28,64)                1.1087         estimate D2E/DX2                !
 ! R62   R(28,65)                1.1133         estimate D2E/DX2                !
 ! R63   R(28,66)                1.1122         estimate D2E/DX2                !
 ! R64   R(29,67)                1.1131         estimate D2E/DX2                !
 ! R65   R(29,68)                1.1119         estimate D2E/DX2                !
 ! R66   R(29,69)                1.1139         estimate D2E/DX2                !
 ! R67   R(30,31)                1.5244         estimate D2E/DX2                !
 ! R68   R(30,70)                1.1155         estimate D2E/DX2                !
 ! R69   R(30,71)                1.1167         estimate D2E/DX2                !
 ! R70   R(31,32)                1.525          estimate D2E/DX2                !
 ! R71   R(31,72)                1.1162         estimate D2E/DX2                !
 ! R72   R(31,73)                1.1137         estimate D2E/DX2                !
 ! R73   R(32,33)                1.5144         estimate D2E/DX2                !
 ! R74   R(32,74)                1.116          estimate D2E/DX2                !
 ! R75   R(32,75)                1.1166         estimate D2E/DX2                !
 ! R76   R(33,36)                1.5212         estimate D2E/DX2                !
 ! R77   R(34,76)                1.1139         estimate D2E/DX2                !
 ! R78   R(34,77)                1.1064         estimate D2E/DX2                !
 ! R79   R(34,78)                1.114          estimate D2E/DX2                !
 ! R80   R(35,79)                1.1086         estimate D2E/DX2                !
 ! R81   R(35,80)                1.1133         estimate D2E/DX2                !
 ! R82   R(35,81)                1.1122         estimate D2E/DX2                !
 ! R83   R(36,82)                1.1131         estimate D2E/DX2                !
 ! R84   R(36,83)                1.1119         estimate D2E/DX2                !
 ! R85   R(36,84)                1.1139         estimate D2E/DX2                !
 ! R86   R(37,85)                1.1137         estimate D2E/DX2                !
 ! R87   R(37,86)                1.1076         estimate D2E/DX2                !
 ! R88   R(37,87)                1.114          estimate D2E/DX2                !
 ! R89   R(38,88)                1.1138         estimate D2E/DX2                !
 ! R90   R(38,89)                1.1076         estimate D2E/DX2                !
 ! R91   R(38,90)                1.114          estimate D2E/DX2                !
 ! R92   R(39,91)                1.114          estimate D2E/DX2                !
 ! R93   R(39,92)                1.1138         estimate D2E/DX2                !
 ! R94   R(39,93)                1.1076         estimate D2E/DX2                !
 ! R95   R(40,94)                1.1076         estimate D2E/DX2                !
 ! R96   R(40,95)                1.114          estimate D2E/DX2                !
 ! R97   R(40,96)                1.1137         estimate D2E/DX2                !
 ! A1    A(2,1,6)              112.25           estimate D2E/DX2                !
 ! A2    A(2,1,41)             107.4474         estimate D2E/DX2                !
 ! A3    A(2,1,42)             109.5927         estimate D2E/DX2                !
 ! A4    A(6,1,41)             110.3663         estimate D2E/DX2                !
 ! A5    A(6,1,42)             111.0009         estimate D2E/DX2                !
 ! A6    A(41,1,42)            105.9301         estimate D2E/DX2                !
 ! A7    A(1,2,3)              106.7818         estimate D2E/DX2                !
 ! A8    A(1,2,43)             111.0139         estimate D2E/DX2                !
 ! A9    A(1,2,44)             111.0494         estimate D2E/DX2                !
 ! A10   A(3,2,43)             110.2139         estimate D2E/DX2                !
 ! A11   A(3,2,44)             110.8953         estimate D2E/DX2                !
 ! A12   A(43,2,44)            106.9324         estimate D2E/DX2                !
 ! A13   A(2,3,4)              113.536          estimate D2E/DX2                !
 ! A14   A(2,3,45)             110.2258         estimate D2E/DX2                !
 ! A15   A(2,3,46)             107.648          estimate D2E/DX2                !
 ! A16   A(4,3,45)             108.082          estimate D2E/DX2                !
 ! A17   A(4,3,46)             109.6173         estimate D2E/DX2                !
 ! A18   A(45,3,46)            107.575          estimate D2E/DX2                !
 ! A19   A(3,4,5)              124.446          estimate D2E/DX2                !
 ! A20   A(3,4,29)             110.1323         estimate D2E/DX2                !
 ! A21   A(5,4,29)             125.4169         estimate D2E/DX2                !
 ! A22   A(4,5,6)              119.6484         estimate D2E/DX2                !
 ! A23   A(4,5,7)              117.199          estimate D2E/DX2                !
 ! A24   A(6,5,7)              123.1311         estimate D2E/DX2                !
 ! A25   A(1,6,5)              112.1596         estimate D2E/DX2                !
 ! A26   A(1,6,27)             103.1083         estimate D2E/DX2                !
 ! A27   A(1,6,28)             107.5718         estimate D2E/DX2                !
 ! A28   A(5,6,27)             112.3493         estimate D2E/DX2                !
 ! A29   A(5,6,28)             110.6936         estimate D2E/DX2                !
 ! A30   A(27,6,28)            110.637          estimate D2E/DX2                !
 ! A31   A(5,7,8)              130.81           estimate D2E/DX2                !
 ! A32   A(5,7,47)             116.707          estimate D2E/DX2                !
 ! A33   A(8,7,47)             112.4421         estimate D2E/DX2                !
 ! A34   A(7,8,9)              126.6064         estimate D2E/DX2                !
 ! A35   A(7,8,48)             117.3219         estimate D2E/DX2                !
 ! A36   A(9,8,48)             116.0598         estimate D2E/DX2                !
 ! A37   A(8,9,10)             117.6874         estimate D2E/DX2                !
 ! A38   A(8,9,40)             119.9666         estimate D2E/DX2                !
 ! A39   A(10,9,40)            122.3459         estimate D2E/DX2                !
 ! A40   A(9,10,11)            127.9757         estimate D2E/DX2                !
 ! A41   A(9,10,49)            117.2221         estimate D2E/DX2                !
 ! A42   A(11,10,49)           114.798          estimate D2E/DX2                !
 ! A43   A(10,11,12)           122.8467         estimate D2E/DX2                !
 ! A44   A(10,11,50)           119.1664         estimate D2E/DX2                !
 ! A45   A(12,11,50)           117.9832         estimate D2E/DX2                !
 ! A46   A(11,12,13)           126.0898         estimate D2E/DX2                !
 ! A47   A(11,12,51)           115.9786         estimate D2E/DX2                !
 ! A48   A(13,12,51)           117.9289         estimate D2E/DX2                !
 ! A49   A(12,13,14)           117.7375         estimate D2E/DX2                !
 ! A50   A(12,13,39)           119.5152         estimate D2E/DX2                !
 ! A51   A(14,13,39)           122.7464         estimate D2E/DX2                !
 ! A52   A(13,14,15)           127.8874         estimate D2E/DX2                !
 ! A53   A(13,14,52)           117.1887         estimate D2E/DX2                !
 ! A54   A(15,14,52)           114.9209         estimate D2E/DX2                !
 ! A55   A(14,15,16)           122.8734         estimate D2E/DX2                !
 ! A56   A(14,15,53)           119.9692         estimate D2E/DX2                !
 ! A57   A(16,15,53)           117.1554         estimate D2E/DX2                !
 ! A58   A(15,16,17)           122.8655         estimate D2E/DX2                !
 ! A59   A(15,16,54)           117.1619         estimate D2E/DX2                !
 ! A60   A(17,16,54)           119.9705         estimate D2E/DX2                !
 ! A61   A(16,17,18)           127.8929         estimate D2E/DX2                !
 ! A62   A(16,17,55)           114.9191         estimate D2E/DX2                !
 ! A63   A(18,17,55)           117.185          estimate D2E/DX2                !
 ! A64   A(17,18,19)           117.72           estimate D2E/DX2                !
 ! A65   A(17,18,38)           122.7536         estimate D2E/DX2                !
 ! A66   A(19,18,38)           119.5254         estimate D2E/DX2                !
 ! A67   A(18,19,20)           126.1021         estimate D2E/DX2                !
 ! A68   A(18,19,56)           117.9285         estimate D2E/DX2                !
 ! A69   A(20,19,56)           115.9667         estimate D2E/DX2                !
 ! A70   A(19,20,21)           122.8319         estimate D2E/DX2                !
 ! A71   A(19,20,57)           117.9819         estimate D2E/DX2                !
 ! A72   A(21,20,57)           119.1824         estimate D2E/DX2                !
 ! A73   A(20,21,22)           127.9745         estimate D2E/DX2                !
 ! A74   A(20,21,58)           114.8063         estimate D2E/DX2                !
 ! A75   A(22,21,58)           117.2151         estimate D2E/DX2                !
 ! A76   A(21,22,23)           117.6866         estimate D2E/DX2                !
 ! A77   A(21,22,37)           122.3435         estimate D2E/DX2                !
 ! A78   A(23,22,37)           119.9698         estimate D2E/DX2                !
 ! A79   A(22,23,24)           126.6096         estimate D2E/DX2                !
 ! A80   A(22,23,59)           116.0573         estimate D2E/DX2                !
 ! A81   A(24,23,59)           117.3214         estimate D2E/DX2                !
 ! A82   A(23,24,25)           130.7979         estimate D2E/DX2                !
 ! A83   A(23,24,60)           112.4469         estimate D2E/DX2                !
 ! A84   A(25,24,60)           116.7147         estimate D2E/DX2                !
 ! A85   A(24,25,26)           123.1332         estimate D2E/DX2                !
 ! A86   A(24,25,33)           117.1943         estimate D2E/DX2                !
 ! A87   A(26,25,33)           119.6513         estimate D2E/DX2                !
 ! A88   A(25,26,30)           112.1631         estimate D2E/DX2                !
 ! A89   A(25,26,34)           112.3484         estimate D2E/DX2                !
 ! A90   A(25,26,35)           110.6985         estimate D2E/DX2                !
 ! A91   A(30,26,34)           103.1115         estimate D2E/DX2                !
 ! A92   A(30,26,35)           107.5668         estimate D2E/DX2                !
 ! A93   A(34,26,35)           110.6307         estimate D2E/DX2                !
 ! A94   A(6,27,61)            110.9813         estimate D2E/DX2                !
 ! A95   A(6,27,62)            111.1496         estimate D2E/DX2                !
 ! A96   A(6,27,63)            115.682          estimate D2E/DX2                !
 ! A97   A(61,27,62)           107.5569         estimate D2E/DX2                !
 ! A98   A(61,27,63)           106.6625         estimate D2E/DX2                !
 ! A99   A(62,27,63)           104.2902         estimate D2E/DX2                !
 ! A100  A(6,28,64)            113.9485         estimate D2E/DX2                !
 ! A101  A(6,28,65)            111.4632         estimate D2E/DX2                !
 ! A102  A(6,28,66)            111.7272         estimate D2E/DX2                !
 ! A103  A(64,28,65)           105.5631         estimate D2E/DX2                !
 ! A104  A(64,28,66)           106.0475         estimate D2E/DX2                !
 ! A105  A(65,28,66)           107.644          estimate D2E/DX2                !
 ! A106  A(4,29,67)            111.4475         estimate D2E/DX2                !
 ! A107  A(4,29,68)            113.6307         estimate D2E/DX2                !
 ! A108  A(4,29,69)            110.4274         estimate D2E/DX2                !
 ! A109  A(67,29,68)           103.4468         estimate D2E/DX2                !
 ! A110  A(67,29,69)           107.2677         estimate D2E/DX2                !
 ! A111  A(68,29,69)           110.2532         estimate D2E/DX2                !
 ! A112  A(26,30,31)           112.2394         estimate D2E/DX2                !
 ! A113  A(26,30,70)           111.0031         estimate D2E/DX2                !
 ! A114  A(26,30,71)           110.3643         estimate D2E/DX2                !
 ! A115  A(31,30,70)           109.5979         estimate D2E/DX2                !
 ! A116  A(31,30,71)           107.4628         estimate D2E/DX2                !
 ! A117  A(70,30,71)           105.9203         estimate D2E/DX2                !
 ! A118  A(30,31,32)           106.7877         estimate D2E/DX2                !
 ! A119  A(30,31,72)           111.0029         estimate D2E/DX2                !
 ! A120  A(30,31,73)           111.0539         estimate D2E/DX2                !
 ! A121  A(32,31,72)           110.2114         estimate D2E/DX2                !
 ! A122  A(32,31,73)           110.8916         estimate D2E/DX2                !
 ! A123  A(72,31,73)           106.9388         estimate D2E/DX2                !
 ! A124  A(31,32,33)           113.5276         estimate D2E/DX2                !
 ! A125  A(31,32,74)           110.227          estimate D2E/DX2                !
 ! A126  A(31,32,75)           107.6505         estimate D2E/DX2                !
 ! A127  A(33,32,74)           108.0903         estimate D2E/DX2                !
 ! A128  A(33,32,75)           109.6162         estimate D2E/DX2                !
 ! A129  A(74,32,75)           107.5726         estimate D2E/DX2                !
 ! A130  A(25,33,32)           124.442          estimate D2E/DX2                !
 ! A131  A(25,33,36)           125.4195         estimate D2E/DX2                !
 ! A132  A(32,33,36)           110.1338         estimate D2E/DX2                !
 ! A133  A(26,34,76)           111.1427         estimate D2E/DX2                !
 ! A134  A(26,34,77)           115.6906         estimate D2E/DX2                !
 ! A135  A(26,34,78)           110.9831         estimate D2E/DX2                !
 ! A136  A(76,34,77)           104.293          estimate D2E/DX2                !
 ! A137  A(76,34,78)           107.5497         estimate D2E/DX2                !
 ! A138  A(77,34,78)           106.6625         estimate D2E/DX2                !
 ! A139  A(26,35,79)           113.9566         estimate D2E/DX2                !
 ! A140  A(26,35,80)           111.4591         estimate D2E/DX2                !
 ! A141  A(26,35,81)           111.7236         estimate D2E/DX2                !
 ! A142  A(79,35,80)           105.5612         estimate D2E/DX2                !
 ! A143  A(79,35,81)           106.0511         estimate D2E/DX2                !
 ! A144  A(80,35,81)           107.6418         estimate D2E/DX2                !
 ! A145  A(33,36,82)           111.4484         estimate D2E/DX2                !
 ! A146  A(33,36,83)           113.6271         estimate D2E/DX2                !
 ! A147  A(33,36,84)           110.4267         estimate D2E/DX2                !
 ! A148  A(82,36,83)           103.4379         estimate D2E/DX2                !
 ! A149  A(82,36,84)           107.2742         estimate D2E/DX2                !
 ! A150  A(83,36,84)           110.2591         estimate D2E/DX2                !
 ! A151  A(22,37,85)           110.8123         estimate D2E/DX2                !
 ! A152  A(22,37,86)           115.8113         estimate D2E/DX2                !
 ! A153  A(22,37,87)           110.3123         estimate D2E/DX2                !
 ! A154  A(85,37,86)           103.7834         estimate D2E/DX2                !
 ! A155  A(85,37,87)           109.4111         estimate D2E/DX2                !
 ! A156  A(86,37,87)           106.3602         estimate D2E/DX2                !
 ! A157  A(18,38,88)           110.5458         estimate D2E/DX2                !
 ! A158  A(18,38,89)           115.835          estimate D2E/DX2                !
 ! A159  A(18,38,90)           110.2946         estimate D2E/DX2                !
 ! A160  A(88,38,89)           104.5434         estimate D2E/DX2                !
 ! A161  A(88,38,90)           109.2289         estimate D2E/DX2                !
 ! A162  A(89,38,90)           106.0609         estimate D2E/DX2                !
 ! A163  A(13,39,91)           110.2846         estimate D2E/DX2                !
 ! A164  A(13,39,92)           110.5399         estimate D2E/DX2                !
 ! A165  A(13,39,93)           115.8401         estimate D2E/DX2                !
 ! A166  A(91,39,92)           109.2428         estimate D2E/DX2                !
 ! A167  A(91,39,93)           106.0683         estimate D2E/DX2                !
 ! A168  A(92,39,93)           104.5345         estimate D2E/DX2                !
 ! A169  A(9,40,94)            115.8112         estimate D2E/DX2                !
 ! A170  A(9,40,95)            110.3102         estimate D2E/DX2                !
 ! A171  A(9,40,96)            110.8207         estimate D2E/DX2                !
 ! A172  A(94,40,95)           106.372          estimate D2E/DX2                !
 ! A173  A(94,40,96)           103.77           estimate D2E/DX2                !
 ! A174  A(95,40,96)           109.4058         estimate D2E/DX2                !
 ! D1    D(6,1,2,3)            -64.5636         estimate D2E/DX2                !
 ! D2    D(6,1,2,43)           175.2739         estimate D2E/DX2                !
 ! D3    D(6,1,2,44)            56.4488         estimate D2E/DX2                !
 ! D4    D(41,1,2,3)            56.9522         estimate D2E/DX2                !
 ! D5    D(41,1,2,43)          -63.2103         estimate D2E/DX2                !
 ! D6    D(41,1,2,44)          177.9645         estimate D2E/DX2                !
 ! D7    D(42,1,2,3)           171.6133         estimate D2E/DX2                !
 ! D8    D(42,1,2,43)           51.4508         estimate D2E/DX2                !
 ! D9    D(42,1,2,44)          -67.3744         estimate D2E/DX2                !
 ! D10   D(2,1,6,5)             44.9333         estimate D2E/DX2                !
 ! D11   D(2,1,6,27)           166.0244         estimate D2E/DX2                !
 ! D12   D(2,1,6,28)           -77.0183         estimate D2E/DX2                !
 ! D13   D(41,1,6,5)           -74.8966         estimate D2E/DX2                !
 ! D14   D(41,1,6,27)           46.1945         estimate D2E/DX2                !
 ! D15   D(41,1,6,28)          163.1519         estimate D2E/DX2                !
 ! D16   D(42,1,6,5)           167.9674         estimate D2E/DX2                !
 ! D17   D(42,1,6,27)          -70.9415         estimate D2E/DX2                !
 ! D18   D(42,1,6,28)           46.0159         estimate D2E/DX2                !
 ! D19   D(1,2,3,4)             48.1478         estimate D2E/DX2                !
 ! D20   D(1,2,3,45)           -73.2693         estimate D2E/DX2                !
 ! D21   D(1,2,3,46)           169.6718         estimate D2E/DX2                !
 ! D22   D(43,2,3,4)           168.8229         estimate D2E/DX2                !
 ! D23   D(43,2,3,45)           47.4057         estimate D2E/DX2                !
 ! D24   D(43,2,3,46)          -69.6531         estimate D2E/DX2                !
 ! D25   D(44,2,3,4)           -72.9626         estimate D2E/DX2                !
 ! D26   D(44,2,3,45)          165.6203         estimate D2E/DX2                !
 ! D27   D(44,2,3,46)           48.5614         estimate D2E/DX2                !
 ! D28   D(2,3,4,5)            -14.3171         estimate D2E/DX2                !
 ! D29   D(2,3,4,29)           164.9165         estimate D2E/DX2                !
 ! D30   D(45,3,4,5)           108.2912         estimate D2E/DX2                !
 ! D31   D(45,3,4,29)          -72.4752         estimate D2E/DX2                !
 ! D32   D(46,3,4,5)          -134.7346         estimate D2E/DX2                !
 ! D33   D(46,3,4,29)           44.4989         estimate D2E/DX2                !
 ! D34   D(3,4,5,6)             -6.7907         estimate D2E/DX2                !
 ! D35   D(3,4,5,7)            171.5738         estimate D2E/DX2                !
 ! D36   D(29,4,5,6)           174.0923         estimate D2E/DX2                !
 ! D37   D(29,4,5,7)            -7.5432         estimate D2E/DX2                !
 ! D38   D(3,4,29,67)           23.1073         estimate D2E/DX2                !
 ! D39   D(3,4,29,68)          139.5047         estimate D2E/DX2                !
 ! D40   D(3,4,29,69)          -96.0123         estimate D2E/DX2                !
 ! D41   D(5,4,29,67)         -157.6682         estimate D2E/DX2                !
 ! D42   D(5,4,29,68)          -41.2708         estimate D2E/DX2                !
 ! D43   D(5,4,29,69)           83.2121         estimate D2E/DX2                !
 ! D44   D(4,5,6,1)             -8.4377         estimate D2E/DX2                !
 ! D45   D(4,5,6,27)          -124.0457         estimate D2E/DX2                !
 ! D46   D(4,5,6,28)           111.7147         estimate D2E/DX2                !
 ! D47   D(7,5,6,1)            173.2993         estimate D2E/DX2                !
 ! D48   D(7,5,6,27)            57.6913         estimate D2E/DX2                !
 ! D49   D(7,5,6,28)           -66.5482         estimate D2E/DX2                !
 ! D50   D(4,5,7,8)           -176.5811         estimate D2E/DX2                !
 ! D51   D(4,5,7,47)             0.8884         estimate D2E/DX2                !
 ! D52   D(6,5,7,8)              1.7216         estimate D2E/DX2                !
 ! D53   D(6,5,7,47)           179.1911         estimate D2E/DX2                !
 ! D54   D(1,6,27,61)          -69.7079         estimate D2E/DX2                !
 ! D55   D(1,6,27,62)           49.9463         estimate D2E/DX2                !
 ! D56   D(1,6,27,63)          168.6125         estimate D2E/DX2                !
 ! D57   D(5,6,27,61)           51.2542         estimate D2E/DX2                !
 ! D58   D(5,6,27,62)          170.9084         estimate D2E/DX2                !
 ! D59   D(5,6,27,63)          -70.4254         estimate D2E/DX2                !
 ! D60   D(28,6,27,61)         175.5251         estimate D2E/DX2                !
 ! D61   D(28,6,27,62)         -64.8207         estimate D2E/DX2                !
 ! D62   D(28,6,27,63)          53.8455         estimate D2E/DX2                !
 ! D63   D(1,6,28,64)         -171.6517         estimate D2E/DX2                !
 ! D64   D(1,6,28,65)          -52.3062         estimate D2E/DX2                !
 ! D65   D(1,6,28,66)           68.1761         estimate D2E/DX2                !
 ! D66   D(5,6,28,64)           65.4903         estimate D2E/DX2                !
 ! D67   D(5,6,28,65)         -175.1641         estimate D2E/DX2                !
 ! D68   D(5,6,28,66)          -54.6819         estimate D2E/DX2                !
 ! D69   D(27,6,28,64)         -59.7221         estimate D2E/DX2                !
 ! D70   D(27,6,28,65)          59.6235         estimate D2E/DX2                !
 ! D71   D(27,6,28,66)        -179.8943         estimate D2E/DX2                !
 ! D72   D(5,7,8,9)            179.2962         estimate D2E/DX2                !
 ! D73   D(5,7,8,48)             0.6074         estimate D2E/DX2                !
 ! D74   D(47,7,8,9)             1.7419         estimate D2E/DX2                !
 ! D75   D(47,7,8,48)         -176.9469         estimate D2E/DX2                !
 ! D76   D(7,8,9,10)          -177.9941         estimate D2E/DX2                !
 ! D77   D(7,8,9,40)             1.8865         estimate D2E/DX2                !
 ! D78   D(48,8,9,10)            0.7092         estimate D2E/DX2                !
 ! D79   D(48,8,9,40)         -179.4102         estimate D2E/DX2                !
 ! D80   D(8,9,10,11)          178.203          estimate D2E/DX2                !
 ! D81   D(8,9,10,49)           -1.014          estimate D2E/DX2                !
 ! D82   D(40,9,10,11)          -1.6746         estimate D2E/DX2                !
 ! D83   D(40,9,10,49)         179.1085         estimate D2E/DX2                !
 ! D84   D(8,9,40,94)          171.1841         estimate D2E/DX2                !
 ! D85   D(8,9,40,95)          -67.9603         estimate D2E/DX2                !
 ! D86   D(8,9,40,96)           53.3573         estimate D2E/DX2                !
 ! D87   D(10,9,40,94)          -8.9411         estimate D2E/DX2                !
 ! D88   D(10,9,40,95)         111.9145         estimate D2E/DX2                !
 ! D89   D(10,9,40,96)        -126.7679         estimate D2E/DX2                !
 ! D90   D(9,10,11,12)        -179.4798         estimate D2E/DX2                !
 ! D91   D(9,10,11,50)          -0.1945         estimate D2E/DX2                !
 ! D92   D(49,10,11,12)         -0.2469         estimate D2E/DX2                !
 ! D93   D(49,10,11,50)        179.0385         estimate D2E/DX2                !
 ! D94   D(10,11,12,13)        179.1429         estimate D2E/DX2                !
 ! D95   D(10,11,12,51)         -0.2404         estimate D2E/DX2                !
 ! D96   D(50,11,12,13)         -0.1505         estimate D2E/DX2                !
 ! D97   D(50,11,12,51)       -179.5337         estimate D2E/DX2                !
 ! D98   D(11,12,13,14)       -178.8328         estimate D2E/DX2                !
 ! D99   D(11,12,13,39)          0.8264         estimate D2E/DX2                !
 ! D100  D(51,12,13,14)          0.5397         estimate D2E/DX2                !
 ! D101  D(51,12,13,39)       -179.8011         estimate D2E/DX2                !
 ! D102  D(12,13,14,15)        178.367          estimate D2E/DX2                !
 ! D103  D(12,13,14,52)         -0.9616         estimate D2E/DX2                !
 ! D104  D(39,13,14,15)         -1.2804         estimate D2E/DX2                !
 ! D105  D(39,13,14,52)        179.3909         estimate D2E/DX2                !
 ! D106  D(12,13,39,91)        -64.458          estimate D2E/DX2                !
 ! D107  D(12,13,39,92)         56.4525         estimate D2E/DX2                !
 ! D108  D(12,13,39,93)        175.0872         estimate D2E/DX2                !
 ! D109  D(14,13,39,91)        115.1834         estimate D2E/DX2                !
 ! D110  D(14,13,39,92)       -123.9061         estimate D2E/DX2                !
 ! D111  D(14,13,39,93)         -5.2714         estimate D2E/DX2                !
 ! D112  D(13,14,15,16)       -179.5539         estimate D2E/DX2                !
 ! D113  D(13,14,15,53)         -0.0938         estimate D2E/DX2                !
 ! D114  D(52,14,15,16)         -0.2124         estimate D2E/DX2                !
 ! D115  D(52,14,15,53)        179.2478         estimate D2E/DX2                !
 ! D116  D(14,15,16,17)        178.9792         estimate D2E/DX2                !
 ! D117  D(14,15,16,54)         -0.4987         estimate D2E/DX2                !
 ! D118  D(53,15,16,17)         -0.4952         estimate D2E/DX2                !
 ! D119  D(53,15,16,54)       -179.9731         estimate D2E/DX2                !
 ! D120  D(15,16,17,18)       -179.557          estimate D2E/DX2                !
 ! D121  D(15,16,17,55)         -0.2161         estimate D2E/DX2                !
 ! D122  D(54,16,17,18)         -0.0932         estimate D2E/DX2                !
 ! D123  D(54,16,17,55)        179.2477         estimate D2E/DX2                !
 ! D124  D(16,17,18,19)        178.3608         estimate D2E/DX2                !
 ! D125  D(16,17,18,38)         -1.2808         estimate D2E/DX2                !
 ! D126  D(55,17,18,19)         -0.9672         estimate D2E/DX2                !
 ! D127  D(55,17,18,38)        179.3912         estimate D2E/DX2                !
 ! D128  D(17,18,19,20)       -178.8405         estimate D2E/DX2                !
 ! D129  D(17,18,19,56)          0.5327         estimate D2E/DX2                !
 ! D130  D(38,18,19,20)          0.8131         estimate D2E/DX2                !
 ! D131  D(38,18,19,56)       -179.8137         estimate D2E/DX2                !
 ! D132  D(17,18,38,88)       -123.8669         estimate D2E/DX2                !
 ! D133  D(17,18,38,89)         -5.2197         estimate D2E/DX2                !
 ! D134  D(17,18,38,90)        115.2296         estimate D2E/DX2                !
 ! D135  D(19,18,38,88)         56.4977         estimate D2E/DX2                !
 ! D136  D(19,18,38,89)        175.145          estimate D2E/DX2                !
 ! D137  D(19,18,38,90)        -64.4058         estimate D2E/DX2                !
 ! D138  D(18,19,20,21)        179.1259         estimate D2E/DX2                !
 ! D139  D(18,19,20,57)         -0.1592         estimate D2E/DX2                !
 ! D140  D(56,19,20,21)         -0.258          estimate D2E/DX2                !
 ! D141  D(56,19,20,57)       -179.5432         estimate D2E/DX2                !
 ! D142  D(19,20,21,22)       -179.4799         estimate D2E/DX2                !
 ! D143  D(19,20,21,58)         -0.24           estimate D2E/DX2                !
 ! D144  D(57,20,21,22)         -0.203          estimate D2E/DX2                !
 ! D145  D(57,20,21,58)        179.037          estimate D2E/DX2                !
 ! D146  D(20,21,22,23)        178.2158         estimate D2E/DX2                !
 ! D147  D(20,21,22,37)         -1.6743         estimate D2E/DX2                !
 ! D148  D(58,21,22,23)         -1.0084         estimate D2E/DX2                !
 ! D149  D(58,21,22,37)        179.1016         estimate D2E/DX2                !
 ! D150  D(21,22,23,24)       -178.0162         estimate D2E/DX2                !
 ! D151  D(21,22,23,59)          0.6964         estimate D2E/DX2                !
 ! D152  D(37,22,23,24)          1.8766         estimate D2E/DX2                !
 ! D153  D(37,22,23,59)       -179.4108         estimate D2E/DX2                !
 ! D154  D(21,22,37,85)       -126.6972         estimate D2E/DX2                !
 ! D155  D(21,22,37,86)         -8.859          estimate D2E/DX2                !
 ! D156  D(21,22,37,87)        111.9827         estimate D2E/DX2                !
 ! D157  D(23,22,37,85)         53.4152         estimate D2E/DX2                !
 ! D158  D(23,22,37,86)        171.2534         estimate D2E/DX2                !
 ! D159  D(23,22,37,87)        -67.9049         estimate D2E/DX2                !
 ! D160  D(22,23,24,25)        179.317          estimate D2E/DX2                !
 ! D161  D(22,23,24,60)          1.751          estimate D2E/DX2                !
 ! D162  D(59,23,24,25)          0.6188         estimate D2E/DX2                !
 ! D163  D(59,23,24,60)       -176.9472         estimate D2E/DX2                !
 ! D164  D(23,24,25,26)          1.7131         estimate D2E/DX2                !
 ! D165  D(23,24,25,33)       -176.5995         estimate D2E/DX2                !
 ! D166  D(60,24,25,26)        179.1946         estimate D2E/DX2                !
 ! D167  D(60,24,25,33)          0.882          estimate D2E/DX2                !
 ! D168  D(24,25,26,30)        173.3063         estimate D2E/DX2                !
 ! D169  D(24,25,26,34)         57.6925         estimate D2E/DX2                !
 ! D170  D(24,25,26,35)        -66.5419         estimate D2E/DX2                !
 ! D171  D(33,25,26,30)         -8.4207         estimate D2E/DX2                !
 ! D172  D(33,25,26,34)       -124.0345         estimate D2E/DX2                !
 ! D173  D(33,25,26,35)        111.7311         estimate D2E/DX2                !
 ! D174  D(24,25,33,32)        171.5715         estimate D2E/DX2                !
 ! D175  D(24,25,33,36)         -7.5594         estimate D2E/DX2                !
 ! D176  D(26,25,33,32)         -6.8026         estimate D2E/DX2                !
 ! D177  D(26,25,33,36)        174.0665         estimate D2E/DX2                !
 ! D178  D(25,26,30,31)         44.9218         estimate D2E/DX2                !
 ! D179  D(25,26,30,70)        167.9567         estimate D2E/DX2                !
 ! D180  D(25,26,30,71)        -74.9192         estimate D2E/DX2                !
 ! D181  D(34,26,30,31)        166.0156         estimate D2E/DX2                !
 ! D182  D(34,26,30,70)        -70.9495         estimate D2E/DX2                !
 ! D183  D(34,26,30,71)         46.1746         estimate D2E/DX2                !
 ! D184  D(35,26,30,31)        -77.0347         estimate D2E/DX2                !
 ! D185  D(35,26,30,70)         46.0002         estimate D2E/DX2                !
 ! D186  D(35,26,30,71)        163.1243         estimate D2E/DX2                !
 ! D187  D(25,26,34,76)        170.9126         estimate D2E/DX2                !
 ! D188  D(25,26,34,77)        -70.4167         estimate D2E/DX2                !
 ! D189  D(25,26,34,78)         51.2708         estimate D2E/DX2                !
 ! D190  D(30,26,34,76)         49.9449         estimate D2E/DX2                !
 ! D191  D(30,26,34,77)        168.6155         estimate D2E/DX2                !
 ! D192  D(30,26,34,78)        -69.697          estimate D2E/DX2                !
 ! D193  D(35,26,34,76)        -64.8154         estimate D2E/DX2                !
 ! D194  D(35,26,34,77)         53.8553         estimate D2E/DX2                !
 ! D195  D(35,26,34,78)        175.5428         estimate D2E/DX2                !
 ! D196  D(25,26,35,79)         65.5214         estimate D2E/DX2                !
 ! D197  D(25,26,35,80)       -175.1328         estimate D2E/DX2                !
 ! D198  D(25,26,35,81)        -54.6586         estimate D2E/DX2                !
 ! D199  D(30,26,35,79)       -171.6166         estimate D2E/DX2                !
 ! D200  D(30,26,35,80)        -52.2708         estimate D2E/DX2                !
 ! D201  D(30,26,35,81)         68.2034         estimate D2E/DX2                !
 ! D202  D(34,26,35,79)        -59.6889         estimate D2E/DX2                !
 ! D203  D(34,26,35,80)         59.6569         estimate D2E/DX2                !
 ! D204  D(34,26,35,81)       -179.8689         estimate D2E/DX2                !
 ! D205  D(26,30,31,32)        -64.5732         estimate D2E/DX2                !
 ! D206  D(26,30,31,72)        175.27           estimate D2E/DX2                !
 ! D207  D(26,30,31,73)         56.441          estimate D2E/DX2                !
 ! D208  D(70,30,31,32)        171.6044         estimate D2E/DX2                !
 ! D209  D(70,30,31,72)         51.4476         estimate D2E/DX2                !
 ! D210  D(70,30,31,73)        -67.3814         estimate D2E/DX2                !
 ! D211  D(71,30,31,32)         56.9439         estimate D2E/DX2                !
 ! D212  D(71,30,31,72)        -63.213          estimate D2E/DX2                !
 ! D213  D(71,30,31,73)        177.9581         estimate D2E/DX2                !
 ! D214  D(30,31,32,33)         48.1672         estimate D2E/DX2                !
 ! D215  D(30,31,32,74)        -73.2557         estimate D2E/DX2                !
 ! D216  D(30,31,32,75)        169.6862         estimate D2E/DX2                !
 ! D217  D(72,31,32,33)        168.8312         estimate D2E/DX2                !
 ! D218  D(72,31,32,74)         47.4082         estimate D2E/DX2                !
 ! D219  D(72,31,32,75)        -69.6498         estimate D2E/DX2                !
 ! D220  D(73,31,32,33)        -72.9502         estimate D2E/DX2                !
 ! D221  D(73,31,32,74)        165.6268         estimate D2E/DX2                !
 ! D222  D(73,31,32,75)         48.5688         estimate D2E/DX2                !
 ! D223  D(31,32,33,25)        -14.3213         estimate D2E/DX2                !
 ! D224  D(31,32,33,36)        164.9244         estimate D2E/DX2                !
 ! D225  D(74,32,33,25)        108.2891         estimate D2E/DX2                !
 ! D226  D(74,32,33,36)        -72.4653         estimate D2E/DX2                !
 ! D227  D(75,32,33,25)       -134.7356         estimate D2E/DX2                !
 ! D228  D(75,32,33,36)         44.51           estimate D2E/DX2                !
 ! D229  D(25,33,36,82)       -157.6519         estimate D2E/DX2                !
 ! D230  D(25,33,36,83)        -41.2675         estimate D2E/DX2                !
 ! D231  D(25,33,36,84)         83.2201         estimate D2E/DX2                !
 ! D232  D(32,33,36,82)         23.1116         estimate D2E/DX2                !
 ! D233  D(32,33,36,83)        139.4959         estimate D2E/DX2                !
 ! D234  D(32,33,36,84)        -96.0165         estimate D2E/DX2                !
 --------------------------------------------------------------------------------
 Trust Radius=3.00D-01 FncErr=1.00D-07 GrdErr=1.00D-06
 Number of steps in this run= 515 maximum allowed number of steps= 576.
 GradGradGradGradGradGradGradGradGradGradGradGradGradGradGradGradGradGrad

 Stoichiometry    C40H56
 Framework group  C1[X(C40H56)]
 Deg. of freedom   282
 Full point group                 C1      NOp   1
 Largest Abelian subgroup         C1      NOp   1
 Largest concise Abelian subgroup C1      NOp   1
                         Standard orientation:                         
 ---------------------------------------------------------------------
 Center     Atomic      Atomic             Coordinates (Angstroms)
 Number     Number       Type             X           Y           Z
 ---------------------------------------------------------------------
      1          6           0       12.657606   -2.021643    0.088540
      2          6           0       13.572298   -1.301501    1.072650
      3          6           0       13.676917    0.144370    0.599381
      4          6           0       12.337474    0.774504    0.279903
      5          6           0       11.179395    0.080806    0.123407
      6          6           0       11.208813   -1.463559    0.115986
      7          6           0       10.035482    0.800880    0.013797
      8          6           0        8.752475    0.404759   -0.086448
      9          6           0        7.663865    1.206855   -0.179548
     10          6           0        6.448048    0.613709   -0.230909
     11          6           0        5.239203    1.204988   -0.290333
     12          6           0        4.085995    0.508719   -0.327814
     13          6           0        2.839006    1.033255   -0.371434
     14          6           0        1.794321    0.173724   -0.380428
     15          6           0        0.480644    0.468994   -0.390624
     16          6           0       -0.481420   -0.475031   -0.390216
     17          6           0       -1.795030   -0.179578   -0.380264
     18          6           0       -2.839901   -1.038846   -0.370581
     19          6           0       -4.086587   -0.513614   -0.327255
     20          6           0       -5.240282   -1.208964   -0.289326
     21          6           0       -6.448516   -0.616425   -0.229907
     22          6           0       -7.664900   -1.208323   -0.178114
     23          6           0       -8.752686   -0.405082   -0.085388
     24          6           0      -10.036139   -0.799778    0.014770
     25          6           0      -11.179150   -0.078185    0.123637
     26          6           0      -11.206637    1.466265    0.115433
     27          6           0       10.577979   -2.059277   -1.169601
     28          6           0       10.514374   -2.029383    1.376452
     29          6           0       12.480109    2.285797    0.180890
     30          6           0      -12.654712    2.026241    0.087403
     31          6           0      -13.570407    1.307439    1.071562
     32          6           0      -13.676939   -0.138420    0.598644
     33          6           0      -12.338135   -0.770414    0.279886
     34          6           0      -10.574634    2.060552   -1.170309
     35          6           0      -10.511789    2.031980    1.375736
     36          6           0      -12.482702   -2.281537    0.181007
     37          6           0       -7.836959   -2.717756   -0.217972
     38          6           0       -2.663708   -2.547038   -0.398096
     39          6           0        2.662271    2.541358   -0.400160
     40          6           0        7.834466    2.716457   -0.219996
     41          1           0       13.100838   -1.902249   -0.929413
     42          1           0       12.668256   -3.116668    0.300571
     43          1           0       14.583535   -1.773161    1.097845
     44          1           0       13.164938   -1.352087    2.107867
     45          1           0       14.315391    0.206177   -0.313785
     46          1           0       14.183380    0.728479    1.405068
     47          1           0       10.135375    1.892612    0.045019
     48          1           0        8.556529   -0.672229   -0.072247
     49          1           0        6.423215   -0.491593   -0.210768
     50          1           0        5.179616    2.300022   -0.297553
     51          1           0        4.184285   -0.591986   -0.311111
     52          1           0        2.028937   -0.906824   -0.367915
     53          1           0        0.153591    1.518886   -0.390813
     54          1           0       -0.154489   -1.524951   -0.389569
     55          1           0       -2.029460    0.900999   -0.368609
     56          1           0       -4.184271    0.587145   -0.311229
     57          1           0       -5.181504   -2.304060   -0.296023
     58          1           0       -6.422713    0.488875   -0.210295
     59          1           0       -8.555586    0.671737   -0.071600
     60          1           0      -10.137309   -1.891393    0.046433
     61          1           0       11.018752   -1.595997   -2.081794
     62          1           0       10.753933   -3.157395   -1.231949
     63          1           0        9.480309   -1.953093   -1.258647
     64          1           0        9.427539   -1.816092    1.425505
     65          1           0       10.603842   -3.137843    1.427885
     66          1           0       10.952000   -1.612182    2.309935
     67          1           0       13.527793    2.581378   -0.051659
     68          1           0       11.894072    2.735287   -0.650311
     69          1           0       12.208024    2.766171    1.148300
     70          1           0      -12.664033    3.121384    0.299077
     71          1           0      -13.097708    1.907272   -0.930705
     72          1           0      -14.581080    1.780514    1.096376
     73          1           0      -13.163138    1.357661    2.106874
     74          1           0      -14.315275   -0.199596   -0.314735
     75          1           0      -14.184463   -0.721636    1.404308
     76          1           0      -10.749189    3.158866   -1.233122
     77          1           0       -9.477055    1.952885   -1.259179
     78          1           0      -11.015910    1.597577   -2.082454
     79          1           0       -9.425114    1.817951    1.425020
     80          1           0      -10.600456    3.140559    1.426733
     81          1           0      -10.949885    1.615502    2.309298
     82          1           0      -13.530609   -2.575783   -0.052077
     83          1           0      -11.896951   -2.731826   -0.649968
     84          1           0      -12.211640   -2.762130    1.148592
     85          1           0       -8.547638   -3.013889   -1.022634
     86          1           0       -6.923378   -3.301456   -0.444807
     87          1           0       -8.211911   -3.090272    0.762703
     88          1           0       -3.214646   -2.989300   -1.259118
     89          1           0       -1.623895   -2.909420   -0.517520
     90          1           0       -3.040201   -2.997371    0.548703
     91          1           0        3.037888    2.992327    0.546683
     92          1           0        3.213658    2.983094   -1.261153
     93          1           0        1.622463    2.903359   -0.520764
     94          1           0        6.920590    3.299116   -0.448284
     95          1           0        8.208061    3.089806    0.760891
     96          1           0        8.545681    3.013046   -1.024023
 ---------------------------------------------------------------------
 Rotational constants (GHZ):      0.3390831      0.0107914      0.0105477
 Standard basis: 6-31G(d) (6D, 7F)
 There are   712 symmetry adapted basis functions of A   symmetry.
 Integral buffers will be    262144 words long.
 Raffenetti 2 integral format.
 Two-electron integral symmetry is turned on.
   712 basis functions,  1344 primitive gaussians,   712 cartesian basis functions
   148 alpha electrons      148 beta electrons
       nuclear repulsion energy      3721.6115312769 Hartrees.
 NAtoms=   96 NActive=   96 NUniq=   96 SFac= 7.50D-01 NAtFMM=   80 NAOKFM=T Big=T
 One-electron integrals computed using PRISM.
 NBasis=   712 RedAO= T  NBF=   712
 NBsUse=   712 1.00D-06 NBFU=   712
 Harris functional with IExCor=  402 diagonalized for initial guess.
 ExpMin= 1.61D-01 ExpMax= 3.05D+03 ExpMxC= 4.57D+02 IAcc=1 IRadAn=         1 AccDes= 0.00D+00
 HarFok:  IExCor=  402 AccDes= 0.00D+00 IRadAn=         1 IDoV= 1
 ScaDFX=  1.000000  1.000000  1.000000  1.000000
 FoFCou: FMM=F IPFlag=           0 FMFlag=      100000 FMFlg1=        2001
         NFxFlg=           0 DoJE=T BraDBF=F KetDBF=T FulRan=T
         Omega=  0.000000  0.000000  1.000000  0.000000  0.000000 ICntrl=     500 IOpCl=  0
         NMat0=    1 NMatS0=    1 NMatT0=    0 NMatD0=    1 NMtDS0=    0 NMtDT0=    0
         I1Cent=           4 NGrid=           0.
 Petite list used in FoFCou.
 Initial guess orbital symmetries:
       Occupied  (A) (A) (A) (A) (A) (A) (A) (A) (A) (A) (A) (A)
                 (A) (A) (A) (A) (A) (A) (A) (A) (A) (A) (A) (A)
                 (A) (A) (A) (A) (A) (A) (A) (A) (A) (A) (A) (A)
                 (A) (A) (A) (A) (A) (A) (A) (A) (A) (A) (A) (A)
                 (A) (A) (A) (A) (A) (A) (A) (A) (A) (A) (A) (A)
                 (A) (A) (A) (A) (A) (A) (A) (A) (A) (A) (A) (A)
                 (A) (A) (A) (A) (A) (A) (A) (A) (A) (A) (A) (A)
                 (A) (A) (A) (A) (A) (A) (A) (A) (A) (A) (A) (A)
                 (A) (A) (A) (A) (A) (A) (A) (A) (A) (A) (A) (A)
                 (A) (A) (A) (A) (A) (A) (A) (A) (A) (A) (A) (A)
                 (A) (A) (A) (A) (A) (A) (A) (A) (A) (A) (A) (A)
                 (A) (A) (A) (A) (A) (A) (A) (A) (A) (A) (A) (A)
                 (A) (A) (A) (A)
       Virtual   (A) (A) (A) (A) (A) (A) (A) (A) (A) (A) (A) (A)
                 (A) (A) (A) (A) (A) (A) (A) (A) (A) (A) (A) (A)
                 (A) (A) (A) (A) (A) (A) (A) (A) (A) (A) (A) (A)
                 (A) (A) (A) (A) (A) (A) (A) (A) (A) (A) (A) (A)
                 (A) (A) (A) (A) (A) (A) (A) (A) (A) (A) (A) (A)
                 (A) (A) (A) (A) (A) (A) (A) (A) (A) (A) (A) (A)
                 (A) (A) (A) (A) (A) (A) (A) (A) (A) (A) (A) (A)
                 (A) (A) (A) (A) (A) (A) (A) (A) (A) (A) (A) (A)
                 (A) (A) (A) (A) (A) (A) (A) (A) (A) (A) (A) (A)
                 (A) (A) (A) (A) (A) (A) (A) (A) (A) (A) (A) (A)
                 (A) (A) (A) (A) (A) (A) (A) (A) (A) (A) (A) (A)
                 (A) (A) (A) (A) (A) (A) (A) (A) (A) (A) (A) (A)
                 (A) (A) (A) (A) (A) (A) (A) (A) (A) (A) (A) (A)
                 (A) (A) (A) (A) (A) (A) (A) (A) (A) (A) (A) (A)
                 (A) (A) (A) (A) (A) (A) (A) (A) (A) (A) (A) (A)
                 (A) (A) (A) (A) (A) (A) (A) (A) (A) (A) (A) (A)
                 (A) (A) (A) (A) (A) (A) (A) (A) (A) (A) (A) (A)
                 (A) (A) (A) (A) (A) (A) (A) (A) (A) (A) (A) (A)
                 (A) (A) (A) (A) (A) (A) (A) (A) (A) (A) (A) (A)
                 (A) (A) (A) (A) (A) (A) (A) (A) (A) (A) (A) (A)
                 (A) (A) (A) (A) (A) (A) (A) (A) (A) (A) (A) (A)
                 (A) (A) (A) (A) (A) (A) (A) (A) (A) (A) (A) (A)
                 (A) (A) (A) (A) (A) (A) (A) (A) (A) (A) (A) (A)
                 (A) (A) (A) (A) (A) (A) (A) (A) (A) (A) (A) (A)
                 (A) (A) (A) (A) (A) (A) (A) (A) (A) (A) (A) (A)
                 (A) (A) (A) (A) (A) (A) (A) (A) (A) (A) (A) (A)
                 (A) (A) (A) (A) (A) (A) (A) (A) (A) (A) (A) (A)
                 (A) (A) (A) (A) (A) (A) (A) (A) (A) (A) (A) (A)
                 (A) (A) (A) (A) (A) (A) (A) (A) (A) (A) (A) (A)
                 (A) (A) (A) (A) (A) (A) (A) (A) (A) (A) (A) (A)
                 (A) (A) (A) (A) (A) (A) (A) (A) (A) (A) (A) (A)
                 (A) (A) (A) (A) (A) (A) (A) (A) (A) (A) (A) (A)
                 (A) (A) (A) (A) (A) (A) (A) (A) (A) (A) (A) (A)
                 (A) (A) (A) (A) (A) (A) (A) (A) (A) (A) (A) (A)
                 (A) (A) (A) (A) (A) (A) (A) (A) (A) (A) (A) (A)
                 (A) (A) (A) (A) (A) (A) (A) (A) (A) (A) (A) (A)
                 (A) (A) (A) (A) (A) (A) (A) (A) (A) (A) (A) (A)
                 (A) (A) (A) (A) (A) (A) (A) (A) (A) (A) (A) (A)
                 (A) (A) (A) (A) (A) (A) (A) (A) (A) (A) (A) (A)
                 (A) (A) (A) (A) (A) (A) (A) (A) (A) (A) (A) (A)
                 (A) (A) (A) (A) (A) (A) (A) (A) (A) (A) (A) (A)
                 (A) (A) (A) (A) (A) (A) (A) (A) (A) (A) (A) (A)
                 (A) (A) (A) (A) (A) (A) (A) (A) (A) (A) (A) (A)
                 (A) (A) (A) (A) (A) (A) (A) (A) (A) (A) (A) (A)
                 (A) (A) (A) (A) (A) (A) (A) (A) (A) (A) (A) (A)
                 (A) (A) (A) (A) (A) (A) (A) (A) (A) (A) (A) (A)
                 (A) (A) (A) (A) (A) (A) (A) (A) (A) (A) (A) (A)
 The electronic state of the initial guess is 1-A.
 Requested convergence on RMS density matrix=1.00D-08 within 128 cycles.
 Requested convergence on MAX density matrix=1.00D-06.
 Requested convergence on             energy=1.00D-06.
 No special actions if energy rises.
 Integral accuracy reduced to 1.0D-05 until final iterations.
 Initial convergence to 1.0D-05 achieved.  Increase integral accuracy.
 SCF Done:  E(RB3LYP) =  -1557.81028996     A.U. after   17 cycles
             Convg  =    0.5411D-08             -V/T =  2.0089

 **********************************************************************

            Population analysis using the SCF density.

 **********************************************************************

 Orbital symmetries:
       Occupied  (A) (A) (A) (A) (A) (A) (A) (A) (A) (A) (A) (A)
                 (A) (A) (A) (A) (A) (A) (A) (A) (A) (A) (A) (A)
                 (A) (A) (A) (A) (A) (A) (A) (A) (A) (A) (A) (A)
                 (A) (A) (A) (A) (A) (A) (A) (A) (A) (A) (A) (A)
                 (A) (A) (A) (A) (A) (A) (A) (A) (A) (A) (A) (A)
                 (A) (A) (A) (A) (A) (A) (A) (A) (A) (A) (A) (A)
                 (A) (A) (A) (A) (A) (A) (A) (A) (A) (A) (A) (A)
                 (A) (A) (A) (A) (A) (A) (A) (A) (A) (A) (A) (A)
                 (A) (A) (A) (A) (A) (A) (A) (A) (A) (A) (A) (A)
                 (A) (A) (A) (A) (A) (A) (A) (A) (A) (A) (A) (A)
                 (A) (A) (A) (A) (A) (A) (A) (A) (A) (A) (A) (A)
                 (A) (A) (A) (A) (A) (A) (A) (A) (A) (A) (A) (A)
                 (A) (A) (A) (A)
       Virtual   (A) (A) (A) (A) (A) (A) (A) (A) (A) (A) (A) (A)
                 (A) (A) (A) (A) (A) (A) (A) (A) (A) (A) (A) (A)
                 (A) (A) (A) (A) (A) (A) (A) (A) (A) (A) (A) (A)
                 (A) (A) (A) (A) (A) (A) (A) (A) (A) (A) (A) (A)
                 (A) (A) (A) (A) (A) (A) (A) (A) (A) (A) (A) (A)
                 (A) (A) (A) (A) (A) (A) (A) (A) (A) (A) (A) (A)
                 (A) (A) (A) (A) (A) (A) (A) (A) (A) (A) (A) (A)
                 (A) (A) (A) (A) (A) (A) (A) (A) (A) (A) (A) (A)
                 (A) (A) (A) (A) (A) (A) (A) (A) (A) (A) (A) (A)
                 (A) (A) (A) (A) (A) (A) (A) (A) (A) (A) (A) (A)
                 (A) (A) (A) (A) (A) (A) (A) (A) (A) (A) (A) (A)
                 (A) (A) (A) (A) (A) (A) (A) (A) (A) (A) (A) (A)
                 (A) (A) (A) (A) (A) (A) (A) (A) (A) (A) (A) (A)
                 (A) (A) (A) (A) (A) (A) (A) (A) (A) (A) (A) (A)
                 (A) (A) (A) (A) (A) (A) (A) (A) (A) (A) (A) (A)
                 (A) (A) (A) (A) (A) (A) (A) (A) (A) (A) (A) (A)
                 (A) (A) (A) (A) (A) (A) (A) (A) (A) (A) (A) (A)
                 (A) (A) (A) (A) (A) (A) (A) (A) (A) (A) (A) (A)
                 (A) (A) (A) (A) (A) (A) (A) (A) (A) (A) (A) (A)
                 (A) (A) (A) (A) (A) (A) (A) (A) (A) (A) (A) (A)
                 (A) (A) (A) (A) (A) (A) (A) (A) (A) (A) (A) (A)
                 (A) (A) (A) (A) (A) (A) (A) (A) (A) (A) (A) (A)
                 (A) (A) (A) (A) (A) (A) (A) (A) (A) (A) (A) (A)
                 (A) (A) (A) (A) (A) (A) (A) (A) (A) (A) (A) (A)
                 (A) (A) (A) (A) (A) (A) (A) (A) (A) (A) (A) (A)
                 (A) (A) (A) (A) (A) (A) (A) (A) (A) (A) (A) (A)
                 (A) (A) (A) (A) (A) (A) (A) (A) (A) (A) (A) (A)
                 (A) (A) (A) (A) (A) (A) (A) (A) (A) (A) (A) (A)
                 (A) (A) (A) (A) (A) (A) (A) (A) (A) (A) (A) (A)
                 (A) (A) (A) (A) (A) (A) (A) (A) (A) (A) (A) (A)
                 (A) (A) (A) (A) (A) (A) (A) (A) (A) (A) (A) (A)
                 (A) (A) (A) (A) (A) (A) (A) (A) (A) (A) (A) (A)
                 (A) (A) (A) (A) (A) (A) (A) (A) (A) (A) (A) (A)
                 (A) (A) (A) (A) (A) (A) (A) (A) (A) (A) (A) (A)
                 (A) (A) (A) (A) (A) (A) (A) (A) (A) (A) (A) (A)
                 (A) (A) (A) (A) (A) (A) (A) (A) (A) (A) (A) (A)
                 (A) (A) (A) (A) (A) (A) (A) (A) (A) (A) (A) (A)
                 (A) (A) (A) (A) (A) (A) (A) (A) (A) (A) (A) (A)
                 (A) (A) (A) (A) (A) (A) (A) (A) (A) (A) (A) (A)
                 (A) (A) (A) (A) (A) (A) (A) (A) (A) (A) (A) (A)
                 (A) (A) (A) (A) (A) (A) (A) (A) (A) (A) (A) (A)
                 (A) (A) (A) (A) (A) (A) (A) (A) (A) (A) (A) (A)
                 (A) (A) (A) (A) (A) (A) (A) (A) (A) (A) (A) (A)
                 (A) (A) (A) (A) (A) (A) (A) (A) (A) (A) (A) (A)
                 (A) (A) (A) (A) (A) (A) (A) (A) (A) (A) (A) (A)
                 (A) (A) (A) (A) (A) (A) (A) (A) (A) (A) (A) (A)
                 (A) (A) (A) (A) (A) (A) (A) (A) (A) (A) (A) (A)
 The electronic state is 1-A.
 Alpha  occ. eigenvalues --  -10.19882 -10.19881 -10.18960 -10.18959 -10.18466
 Alpha  occ. eigenvalues --  -10.18465 -10.18386 -10.18385 -10.18350 -10.18350
 Alpha  occ. eigenvalues --  -10.18341 -10.18340 -10.18215 -10.18215 -10.18065
 Alpha  occ. eigenvalues --  -10.18063 -10.17732 -10.17731 -10.17634 -10.17633
 Alpha  occ. eigenvalues --  -10.17592 -10.17592 -10.17300 -10.17248 -10.17230
 Alpha  occ. eigenvalues --  -10.17230 -10.17220 -10.17219 -10.17195 -10.17169
 Alpha  occ. eigenvalues --  -10.17011 -10.17010 -10.16991 -10.16990 -10.16836
 Alpha  occ. eigenvalues --  -10.16836 -10.16559 -10.16559 -10.16396 -10.16395
 Alpha  occ. eigenvalues --   -0.85543  -0.85524  -0.84905  -0.84281  -0.83207
 Alpha  occ. eigenvalues --   -0.82512  -0.80176  -0.78637  -0.78305  -0.78095
 Alpha  occ. eigenvalues --   -0.77598  -0.76006  -0.74670  -0.72135  -0.71632
 Alpha  occ. eigenvalues --   -0.70497  -0.68733  -0.68729  -0.68480  -0.68274
 Alpha  occ. eigenvalues --   -0.67601  -0.67598  -0.66595  -0.66506  -0.66154
 Alpha  occ. eigenvalues --   -0.64102  -0.61749  -0.59939  -0.58440  -0.56689
 Alpha  occ. eigenvalues --   -0.56188  -0.56178  -0.54541  -0.54227  -0.53317
 Alpha  occ. eigenvalues --   -0.53236  -0.51945  -0.51273  -0.50749  -0.49616
 Alpha  occ. eigenvalues --   -0.48489  -0.47695  -0.47142  -0.47102  -0.46139
 Alpha  occ. eigenvalues --   -0.45714  -0.44568  -0.44356  -0.44041  -0.43614
 Alpha  occ. eigenvalues --   -0.42881  -0.42372  -0.42106  -0.42091  -0.42042
 Alpha  occ. eigenvalues --   -0.41865  -0.41824  -0.41768  -0.41504  -0.41480
 Alpha  occ. eigenvalues --   -0.40927  -0.40908  -0.39914  -0.39850  -0.39582
 Alpha  occ. eigenvalues --   -0.39421  -0.39051  -0.38629  -0.38241  -0.38162
 Alpha  occ. eigenvalues --   -0.37827  -0.37444  -0.37310  -0.37133  -0.36448
 Alpha  occ. eigenvalues --   -0.36192  -0.36067  -0.35697  -0.35564  -0.35341
 Alpha  occ. eigenvalues --   -0.34978  -0.34743  -0.34659  -0.34522  -0.34504
 Alpha  occ. eigenvalues --   -0.33975  -0.33824  -0.33760  -0.33533  -0.33364
 Alpha  occ. eigenvalues --   -0.33339  -0.32910  -0.32279  -0.32262  -0.31906
 Alpha  occ. eigenvalues --   -0.31791  -0.30895  -0.30179  -0.29643  -0.29637
 Alpha  occ. eigenvalues --   -0.28889  -0.28873  -0.28224  -0.25820  -0.23643
 Alpha  occ. eigenvalues --   -0.20795  -0.17597  -0.14219
 Alpha virt. eigenvalues --   -0.08589  -0.04385  -0.01047   0.02437   0.05099
 Alpha virt. eigenvalues --    0.07684   0.08079   0.08439   0.08442   0.08711
 Alpha virt. eigenvalues --    0.09345   0.10214   0.10272   0.10372   0.10480
 Alpha virt. eigenvalues --    0.10968   0.10975   0.11353   0.11540   0.11691
 Alpha virt. eigenvalues --    0.12025   0.12038   0.12298   0.12307   0.12574
 Alpha virt. eigenvalues --    0.12597   0.13579   0.13622   0.13986   0.14000
 Alpha virt. eigenvalues --    0.14390   0.14933   0.14935   0.15612   0.15627
 Alpha virt. eigenvalues --    0.16027   0.16046   0.16483   0.16484   0.17165
 Alpha virt. eigenvalues --    0.17166   0.17598   0.17694   0.17791   0.17941
 Alpha virt. eigenvalues --    0.18150   0.18195   0.18608   0.18936   0.19083
 Alpha virt. eigenvalues --    0.19110   0.19288   0.20165   0.20219   0.20450
 Alpha virt. eigenvalues --    0.20668   0.20874   0.20896   0.21635   0.21878
 Alpha virt. eigenvalues --    0.21987   0.22511   0.22544   0.22686   0.22940
 Alpha virt. eigenvalues --    0.23372   0.23560   0.24038   0.24379   0.24498
 Alpha virt. eigenvalues --    0.24923   0.25935   0.26044   0.26237   0.26291
 Alpha virt. eigenvalues --    0.26357   0.27070   0.27819   0.27902   0.27911
 Alpha virt. eigenvalues --    0.27937   0.28590   0.28612   0.31090   0.31182
 Alpha virt. eigenvalues --    0.32811   0.33733   0.33772   0.34874   0.35433
 Alpha virt. eigenvalues --    0.37466   0.38055   0.39888   0.40607   0.40676
 Alpha virt. eigenvalues --    0.41685   0.42337   0.43600   0.44618   0.45328
 Alpha virt. eigenvalues --    0.45535   0.45964   0.47808   0.47906   0.48404
 Alpha virt. eigenvalues --    0.48820   0.49597   0.49722   0.50345   0.50670
 Alpha virt. eigenvalues --    0.50898   0.51022   0.51268   0.51546   0.51606
 Alpha virt. eigenvalues --    0.52169   0.52267   0.52882   0.53770   0.54305
 Alpha virt. eigenvalues --    0.54602   0.54699   0.54973   0.55690   0.55995
 Alpha virt. eigenvalues --    0.56063   0.56448   0.57439   0.57709   0.58041
 Alpha virt. eigenvalues --    0.58449   0.58636   0.59134   0.59465   0.59674
 Alpha virt. eigenvalues --    0.59983   0.60122   0.60521   0.60675   0.61062
 Alpha virt. eigenvalues --    0.61212   0.62041   0.62045   0.62154   0.62386
 Alpha virt. eigenvalues --    0.63091   0.63571   0.63957   0.64453   0.65014
 Alpha virt. eigenvalues --    0.65064   0.65265   0.65324   0.65768   0.65840
 Alpha virt. eigenvalues --    0.66165   0.66439   0.67015   0.67309   0.67670
 Alpha virt. eigenvalues --    0.67951   0.68587   0.69355   0.69811   0.70081
 Alpha virt. eigenvalues --    0.70387   0.70472   0.70612   0.71136   0.71238
 Alpha virt. eigenvalues --    0.72160   0.73286   0.73525   0.74323   0.74605
 Alpha virt. eigenvalues --    0.74808   0.75139   0.75636   0.76249   0.76412
 Alpha virt. eigenvalues --    0.76621   0.76765   0.77348   0.77443   0.78514
 Alpha virt. eigenvalues --    0.78636   0.78809   0.79641   0.79864   0.80146
 Alpha virt. eigenvalues --    0.81115   0.81182   0.81935   0.82057   0.82217
 Alpha virt. eigenvalues --    0.82221   0.82698   0.82741   0.83453   0.83581
 Alpha virt. eigenvalues --    0.84046   0.85021   0.85044   0.85081   0.85107
 Alpha virt. eigenvalues --    0.85499   0.85826   0.85958   0.86621   0.86939
 Alpha virt. eigenvalues --    0.87359   0.87370   0.87757   0.87936   0.88095
 Alpha virt. eigenvalues --    0.88278   0.88681   0.88850   0.89212   0.89542
 Alpha virt. eigenvalues --    0.89749   0.89816   0.89927   0.90107   0.90551
 Alpha virt. eigenvalues --    0.90772   0.90920   0.91445   0.91484   0.92455
 Alpha virt. eigenvalues --    0.92480   0.92581   0.93326   0.93475   0.93985
 Alpha virt. eigenvalues --    0.93989   0.94223   0.94288   0.95155   0.95296
 Alpha virt. eigenvalues --    0.95908   0.96227   0.96802   0.96853   0.97390
 Alpha virt. eigenvalues --    0.97438   0.97767   0.98497   0.98785   0.98834
 Alpha virt. eigenvalues --    0.99437   0.99526   0.99692   1.00504   1.01073
 Alpha virt. eigenvalues --    1.01498   1.01599   1.01634   1.02564   1.02818
 Alpha virt. eigenvalues --    1.03711   1.04268   1.04924   1.06218   1.07265
 Alpha virt. eigenvalues --    1.07382   1.07546   1.07578   1.09955   1.10259
 Alpha virt. eigenvalues --    1.10591   1.10731   1.11562   1.11582   1.12253
 Alpha virt. eigenvalues --    1.13626   1.15159   1.15715   1.16993   1.17127
 Alpha virt. eigenvalues --    1.17409   1.17460   1.19889   1.20090   1.22029
 Alpha virt. eigenvalues --    1.22145   1.23779   1.25048   1.25156   1.27760
 Alpha virt. eigenvalues --    1.29186   1.30234   1.30947   1.31230   1.32152
 Alpha virt. eigenvalues --    1.32303   1.33009   1.33386   1.34157   1.34332
 Alpha virt. eigenvalues --    1.34597   1.34844   1.35224   1.35304   1.35428
 Alpha virt. eigenvalues --    1.35654   1.36552   1.36833   1.39181   1.39192
 Alpha virt. eigenvalues --    1.39377   1.39673   1.40419   1.42357   1.42529
 Alpha virt. eigenvalues --    1.46007   1.46170   1.46769   1.47706   1.48804
 Alpha virt. eigenvalues --    1.49703   1.49927   1.51090   1.51372   1.51977
 Alpha virt. eigenvalues --    1.52006   1.53987   1.56620   1.56646   1.57340
 Alpha virt. eigenvalues --    1.58811   1.59347   1.60288   1.60294   1.62269
 Alpha virt. eigenvalues --    1.62655   1.63855   1.64650   1.65666   1.65848
 Alpha virt. eigenvalues --    1.68168   1.68291   1.68444   1.69398   1.69582
 Alpha virt. eigenvalues --    1.70629   1.71180   1.71343   1.71495   1.73418
 Alpha virt. eigenvalues --    1.73494   1.76896   1.76906   1.79883   1.80375
 Alpha virt. eigenvalues --    1.80896   1.80993   1.82901   1.82938   1.83197
 Alpha virt. eigenvalues --    1.83434   1.85292   1.85299   1.86781   1.87421
 Alpha virt. eigenvalues --    1.87594   1.87937   1.88078   1.88337   1.89616
 Alpha virt. eigenvalues --    1.89682   1.90271   1.90459   1.91044   1.91528
 Alpha virt. eigenvalues --    1.92889   1.93178   1.93700   1.93799   1.94011
 Alpha virt. eigenvalues --    1.94174   1.94625   1.95981   1.96742   1.96835
 Alpha virt. eigenvalues --    1.96947   1.98661   1.99518   1.99675   2.00252
 Alpha virt. eigenvalues --    2.00320   2.00588   2.00965   2.01830   2.01837
 Alpha virt. eigenvalues --    2.02370   2.02547   2.02999   2.03313   2.03746
 Alpha virt. eigenvalues --    2.04015   2.04369   2.04748   2.05170   2.06138
 Alpha virt. eigenvalues --    2.06181   2.07153   2.07280   2.09623   2.10128
 Alpha virt. eigenvalues --    2.11430   2.11993   2.12597   2.12644   2.14518
 Alpha virt. eigenvalues --    2.14973   2.16748   2.17020   2.17201   2.17711
 Alpha virt. eigenvalues --    2.18620   2.19625   2.19713   2.20740   2.21896
 Alpha virt. eigenvalues --    2.22651   2.23194   2.23227   2.23698   2.24265
 Alpha virt. eigenvalues --    2.24268   2.25222   2.25230   2.25464   2.25469
 Alpha virt. eigenvalues --    2.26406   2.26416   2.27807   2.27834   2.29302
 Alpha virt. eigenvalues --    2.29831   2.30384   2.30501   2.30618   2.30919
 Alpha virt. eigenvalues --    2.31191   2.32013   2.32310   2.33169   2.33751
 Alpha virt. eigenvalues --    2.34243   2.34871   2.35409   2.35743   2.38085
 Alpha virt. eigenvalues --    2.38455   2.39641   2.40051   2.40554   2.43809
 Alpha virt. eigenvalues --    2.43974   2.47191   2.47465   2.48345   2.48477
 Alpha virt. eigenvalues --    2.49244   2.49600   2.51198   2.51499   2.51767
 Alpha virt. eigenvalues --    2.52031   2.52896   2.53008   2.53852   2.54507
 Alpha virt. eigenvalues --    2.54828   2.56033   2.56065   2.56978   2.57368
 Alpha virt. eigenvalues --    2.57937   2.58187   2.58247   2.59066   2.59536
 Alpha virt. eigenvalues --    2.60833   2.62879   2.63257   2.64316   2.64976
 Alpha virt. eigenvalues --    2.65630   2.67509   2.67629   2.69679   2.72923
 Alpha virt. eigenvalues --    2.72964   2.75090   2.75143   2.78995   2.79446
 Alpha virt. eigenvalues --    2.80961   2.80982   2.91955   2.93017   2.94987
 Alpha virt. eigenvalues --    2.95345   2.98372   2.98958   2.99648   3.00884
 Alpha virt. eigenvalues --    3.02953   3.03762   3.09119   3.10305   3.13933
 Alpha virt. eigenvalues --    3.15327   3.21444   3.21796   3.27165   3.27684
 Alpha virt. eigenvalues --    3.29376   3.30816   3.35379   3.35522   4.13138
 Alpha virt. eigenvalues --    4.13141   4.15098   4.15373   4.15729   4.15744
[...]
 0.00000105,-0.00000153,0.00000190,-0.00000157,-0.00000092,0.00000203,0
 .00000046,-0.00000648,0.00000132,-0.00000081,-0.00000743,-0.00000187,-
 0.00000016,-0.00000801,-0.00000583,0.00000115,-0.00000834,-0.00002935,
 0.00003896,0.02182621,-0.08018985,0.08294080,-0.00000117,0.00000066,-0
 .00000018,0.00000911,0.00000932,0.00000251,0.00000605,0.00000471,-0.00
 000167,0.00000278,-0.00000235,-0.00000281,-0.00000120,0.00001042,0.000
 00318,-0.00000169,0.00000835,-0.00000091,-0.00059839,-0.00101991,-0.00
 051003,0.00008174,0.00002768,0.00014103,0.00017065,-0.00014327,-0.0001
 8945,0.00012077,0.00039425,0.00010870,0.00005380,-0.00010710,-0.000140
 46,-0.00000560,0.00000217,-0.00000742,-0.00000831,-0.00000625,0.000002
 96,-0.00000226,0.00000130,0.00000211,-0.00000587,-0.00000363,0.0000013
 9,-0.00000531,-0.00000082,0.00000037,-0.00000073,0.00000096,0.00000009
 ,-0.00000449,-0.00000124,0.00000020,-0.00000375,0.00000172,-0.00000031
 ,-0.00000157,0.00000073,-0.00000098,-0.00000170,0.00000619,-0.00000084
 ,0.00000579,0.00000094,0.00000869,0.00000796,-0.00000591,-0.00000298,-
 0.00000114,0.00000202,0.00001008,0.00000845,-0.00000504,-0.00000574,-0
 .00000103,0.00000804,-0.00000366,0.00001650,0.00003876,0.00000823,0.00
 000369,-0.00006283,-0.00006253,0.00001024,0.00001244,0.00009258,-0.000
 00295,-0.00000105,0.00000013,0.00000074,-0.00000005,-0.00000011,-0.000
 00191,-0.00000269,0.00000045,-0.00000032,0.00000129,-0.00000112,-0.000
 00284,-0.00000603,0.00000104,-0.00000168,-0.00000368,-0.00000235,-0.00
 000304,-0.00000108,0.00000101,0.00000226,-0.00000169,-0.00000043,0.000
 00096,-0.00000012,-0.00000096,0.00000175,-0.00000104,0.00000197,-0.000
 00322,-0.00000048,-0.00000014,0.00000089,-0.00000104,-0.00000018,0.000
 00134,-0.00000304,0.00000063,0.00000039,0.00000121,-0.00000022,0.00000
 315,0.00000310,-0.00000121,0.00000409,-0.00000282,0.00000284,-0.000001
 53,0.00000155,0.,0.00000490,-0.00000381,-0.00000190,0.00000672,-0.0000
 0145,0.00000339,-0.00000230,0.00000242,0.00000025,0.00000783,-0.000003
 59,-0.00000262,-0.00000316,0.00000556,0.00000787,0.00001267,0.00002127
 ,-0.00003223,0.00000285,-0.00001865,-0.00000812,0.00866357,-0.00964996
 ,0.02764217,-0.02771568,0.08458903,0.00005944,-0.00002525,0.00000484,-
 0.00000149,0.00000200,0.00001101,0.00003950,-0.00001888,-0.00002188,-0
 .00009055,-0.00006184,-0.00000324,0.00048206,-0.00008940,0.00013928,-0
 .00005584,0.00013102,-0.00002622,-0.00053585,0.00027676,0.00014110,0.0
 0014979,0.00119533,0.00039977,-0.00247688,0.00036446,0.00166008,-0.000
 03957,-0.00143658,-0.00006492,0.00003176,0.00022408,-0.00001946,0.0000
 8571,-0.00016744,-0.00000774,-0.00004591,0.00005512,-0.00001862,0.0000
 6576,-0.00001717,0.00000871,-0.00004907,0.00001564,-0.00000246,0.00003
 164,-0.00000958,0.00000502,-0.00003825,0.00001373,-0.00000383,0.000042
 03,-0.00000982,0.00000431,-0.00002924,-0.00000105,-0.00000139,0.000010
 02,-0.00000973,0.00000220,-0.00002563,0.00001625,-0.00000348,0.0000271
 3,-0.00001690,0.00000385,-0.00002233,0.00000838,-0.00000267,0.00000868
 ,-0.00001414,-0.00000299,-0.00002080,0.00001326,0.00000529,-0.00000831
 ,0.00000205,-0.00000061,0.00002882,0.00000887,-0.00002511,0.00000921,-
 0.00000276,0.00002161,-0.00003461,0.00002459,0.00003398,0.,-0.00000212
 ,0.00000203,-0.00000441,-0.00000026,-0.00000216,-0.00000689,-0.0000008
 4,-0.00000640,0.00002212,-0.00000359,-0.00000149,0.00000172,-0.0000022
 3,0.00000193,0.00000111,-0.00000276,-0.00000084,0.00000753,-0.00000170
 ,0.00000135,0.00000822,0.00000258,0.,0.00000842,0.00000697,-0.00000116
 ,0.00000154,0.00001830,-0.00002604,-0.06208985,0.08245305,-0.25402045,
 -0.00000459,0.00000733,0.00000581,0.00001974,0.00002383,0.00000301,0.0
 0000907,0.00000839,-0.00000233,0.00000112,-0.00000200,-0.00000027,-0.0
 0000756,-0.00001059,0.00000071,-0.00000732,-0.00000572,0.00000969,0.00
 048210,-0.00046966,-0.00022523,-0.00001259,-0.00016993,-0.00004431,0.0
 0001453,0.00006687,-0.00010067,-0.00003613,-0.00004038,0.00001838,0.00
 000034,0.00001070,0.00001665,0.00000463,-0.00000170,-0.00000162,0.0000
 0822,0.00000604,-0.00000225,0.00000261,-0.00000114,-0.00000070,0.00000
 597,0.00000381,-0.00000094,0.00000572,0.00000083,-0.00000012,0.0000009
 1,-0.00000115,0.00000008,0.00000492,0.00000136,-0.00000006,0.00000430,
 -0.00000203,0.00000050,0.00000170,-0.00000086,0.00000120,-0.00000563,0
 .00001120,0.00000434,0.00001206,0.00000378,0.00001530,-0.00001268,-0.0
 0000569,-0.00001311,-0.00001978,0.00000460,-0.00000058,0.00002343,0.00
 000383,-0.00000436,-0.00000396,-0.00000104,0.00000294,0.00002459,0.000
 04886,-0.00000590,0.00003428,-0.00005435,-0.00011629,0.00001565,-0.000
 05892,0.00011196,0.00000356,0.00000116,-0.00000008,-0.00000086,0.00000
 017,0.00000005,0.00000235,0.00000352,-0.00000056,0.00000046,-0.0000016
 4,0.00000147,0.00000351,0.00000728,-0.00000128,0.00000192,0.00000456,0
 .00000299,0.00000352,0.00000124,-0.00000106,-0.00000253,0.00000206,0.0
 0000052,-0.00000122,0.00000017,0.00000105,-0.00000182,0.00000141,-0.00
 000225,0.00000368,0.00000044,0.00000009,-0.00000116,0.00000138,0.00000
 056,-0.00000162,0.00000381,-0.00000085,-0.00000048,-0.00000150,0.00000
 022,-0.00000380,-0.00000374,0.00000140,-0.00000470,0.00000325,-0.00000
 332,0.00000193,-0.00000178,0.00000011,-0.00000568,0.00000434,0.0000023
 2,-0.00000755,0.00000178,-0.00000416,0.00000286,-0.00000246,0.00000006
 ,-0.00000870,0.00000384,0.00000317,-0.00000357,-0.00000534,0.00000225,
 -0.00000971,-0.00000976,0.00000915,-0.00000024,0.00001135,0.00000307,0
 .00024386,0.00054803,-0.00208784,0.06946268,-0.09172714,0.27579646,0.0
 0002655,-0.00001398,-0.00000120,-0.00000179,0.00000051,0.00001023,0.00
 000032,-0.00001699,-0.00000531,-0.00003680,-0.00000694,-0.00000385,0.0
 0021095,-0.00028443,0.00003291,-0.00001749,0.00006298,0.00000935,0.000
 27901,-0.00044792,-0.00003809,0.00074030,0.00126952,-0.00081475,-0.015
 54450,0.02268171,0.02290202,-0.00365405,-0.00296638,0.00071085,-0.0002
 9715,0.00001069,0.00065997,0.00030924,0.00000237,-0.00001468,-0.000120
 57,0.00007584,0.00001826,0.00012292,-0.00000087,0.00000284,-0.00008468
 ,0.00001494,-0.00000944,0.00005265,-0.00000855,0.00000406,-0.00006172,
 0.00002023,-0.00000711,0.00006509,-0.00001329,0.00000615,-0.00004514,-
 0.00000162,-0.00000313,0.00001560,-0.00001475,0.00000255,-0.00003829,0
 .00002443,-0.00000583,0.00004030,-0.00002452,0.00000541,-0.00003226,0.
 00001228,-0.00000418,0.00001278,-0.00002045,-0.00000453,-0.00002939,0.
 00001916,0.00000718,-0.00001163,0.00000280,0.,0.00000275,0.00002165,-0
 .00000092,0.00001371,0.00000614,-0.00000175,-0.00007272,-0.00001817,0.
 00004072,0.00000042,-0.00000322,0.00000368,-0.00000593,-0.00000028,-0.
 00000194,-0.00000985,-0.00000159,-0.00000785,0.00003116,-0.00000467,-0
 .00000199,0.00000259,-0.00000269,0.00000263,0.00000150,-0.00000371,-0.
 00000104,0.00001053,-0.00000243,0.00000281,0.00001181,0.00000422,0.000
 00124,0.00001316,0.00001112,-0.00000026,-0.00002874,0.00005087,-0.0000
 0381,-0.08294436,0.05873084,0.06960424,-0.00000217,-0.00000393,-0.0000
 0125,0.00001337,0.00001554,0.00000045,0.00000444,0.00001013,-0.0000029
 9,0.00000111,-0.00000338,-0.00000494,-0.00000207,0.00000119,0.00000328
 ,-0.00000307,0.00000656,-0.00000590,-0.00012571,-0.00064133,0.00063145
 ,0.00011777,0.00009693,-0.00063513,-0.00050147,0.00044793,-0.00219942,
 0.00024311,0.00014848,-0.00003384,0.00007458,-0.00004402,-0.00001299,0
 .00000952,-0.00000411,0.00000785,0.00001439,0.00001473,0.00000003,0.00
 000442,-0.00000184,0.00000052,0.00000945,0.00000674,0.00000005,0.00000
 871,0.00000170,0.00000051,0.00000144,-0.00000147,0.00000069,0.00000725
 ,0.00000226,0.00000041,0.00000596,-0.00000276,0.00000101,0.00000223,-0
 .00000115,0.00000199,-0.00000368,-0.00003537,-0.00001622,0.00002660,0.
 00001025,-0.00000391,-0.00003169,0.00000853,0.00000421,-0.00002107,0.0
 0001970,0.00000895,0.00001481,0.00000849,-0.00000151,0.00000338,0.0000
 0472,-0.00000904,0.00000815,0.00002816,-0.00002086,0.00006314,-0.00002
 029,-0.00001521,0.00000873,0.00001648,-0.00000937,0.00000492,0.0000015
 9,0.00000008,-0.00000144,0.00000057,-0.00000111,0.00000326,0.00000460,
 -0.00000052,0.00000037,-0.00000208,0.00000072,0.00000445,0.00001092,-0
 .00000256,0.00000335,0.00000581,0.00000377,0.00000524,0.00000179,-0.00
 000136,-0.00000371,0.00000255,0.00000119,-0.00000206,0.00000027,0.0000
 0091,-0.00000253,0.00000215,-0.00000296,0.00000491,0.00000081,0.000000
 28,-0.00000131,0.00000141,-0.00000005,-0.00000228,0.00000544,-0.000000
 98,-0.00000107,-0.00000268,-0.00000004,-0.00000477,-0.00000474,0.00000
 115,-0.00000708,0.00000531,-0.00000554,0.00000247,-0.00000299,0.000000
 56,-0.00000773,0.00000543,0.00000267,-0.00001189,0.00000370,-0.0000067
 6,0.00000371,-0.00000426,0.00000116,-0.00001225,0.00000431,0.00000351,
 0.00000172,0.00000042,0.00000924,0.00000756,-0.00000738,-0.00001059,0.
 00001367,0.00000522,-0.00000419,0.00527146,-0.00741496,-0.01071674,0.0
 0344566,-0.00620818,-0.00578913,0.09240746,0.00000577,-0.00000323,0.00
 000387,-0.00000376,0.00000244,0.00000089,0.00000092,-0.00003154,-0.000
 00409,-0.00007028,0.00014814,-0.00004258,-0.00006984,-0.00033787,0.000
 01952,-0.00000725,0.00000250,0.00002336,-0.00023942,0.00050990,0.00017
 521,-0.00081926,-0.00097013,0.00031512,0.00443182,-0.00105925,0.001229
 83,0.00023089,0.00079248,-0.00039666,-0.00004894,-0.00045566,-0.000054
 27,0.00020243,0.00021000,0.00000388,0.00004998,0.00000002,-0.00007675,
 -0.00006080,-0.00003193,0.00001087,0.00005048,0.00001301,-0.00000160,-
 0.00002729,-0.00001313,0.00000327,0.00004323,0.00000272,0.00000416,-0.
 00004628,-0.00000199,-0.00000245,0.00003480,0.00001150,0.00000196,-0.0
 0001078,0.00000441,-0.00000046,0.00003083,-0.00001427,0.00000440,-0.00
 003171,0.00001619,-0.00000378,0.00002656,-0.00000746,0.00000345,-0.000
 01017,0.00001502,0.00000423,0.00002450,-0.00001478,-0.00000581,0.00000
 937,-0.00000235,-0.00000056,0.00000032,0.00000553,-0.00000666,-0.00000
 314,-0.00000355,-0.00000268,-0.00004925,-0.00000378,0.00007735,-0.0000
 0033,0.00000271,-0.00000300,0.00000476,0.00000028,0.00000115,0.0000082
 4,0.00000139,0.00000623,-0.00002494,0.00000314,0.00000163,-0.00000204,
 0.00000234,-0.00000201,-0.00000104,0.00000296,0.00000072,-0.00000891,0
 .00000214,-0.00000221,-0.00001002,-0.00000305,-0.00000136,-0.00001062,
 -0.00000865,-0.00000068,-0.00000475,-0.00004455,-0.00003217,0.05638330
 ,-0.14428013,-0.11110804,-0.00000099,0.00000507,0.00000256,0.00000247,
 0.00000203,-0.00000061,0.00000334,0.00000175,0.00000048,0.00000011,-0.
 00000048,0.00000181,0.00000125,0.00001585,0.00000259,-0.00000188,0.000
 00671,-0.00000471,-0.00084237,-0.00071350,0.00055831,0.00011134,0.0000
 4173,-0.00013631,0.00012637,-0.00009833,0.00015201,0.00016885,0.000367
 75,-0.00016327,0.00003540,-0.00006819,0.00017025,-0.00000747,0.0000040
 2,0.00000493,-0.00001047,-0.00000875,-0.00000266,-0.00000293,0.0000007
 6,-0.00000302,-0.00000752,-0.00000518,-0.00000134,-0.00000715,-0.00000
 130,-0.00000104,-0.00000093,0.00000119,-0.00000092,-0.00000593,-0.0000
 0182,-0.00000071,-0.00000497,0.00000229,-0.00000110,-0.00000200,0.0000
 0096,-0.00000186,-0.00000288,0.00001205,0.00000193,0.00000096,-0.00000
 564,0.00000453,0.00001262,-0.00000365,-0.00000730,0.00001126,0.0000014
 0,0.00000334,0.00000267,0.00000159,-0.00000246,-0.00000116,0.00000159,
 0.00000127,0.00001079,0.00001329,-0.00001944,0.00002984,0.00002043,-0.
 00005526,-0.00000767,-0.00001410,-0.00001546,-0.00000432,-0.00000138,-
 0.00000017,0.00000135,-0.00000054,0.00000121,-0.00000269,-0.00000379,0
 .00000043,-0.00000019,0.00000164,-0.00000027,-0.00000351,-0.00000898,0
 .00000214,-0.00000296,-0.00000449,-0.00000286,-0.00000464,-0.00000151,
 0.00000118,0.00000322,-0.00000216,-0.00000115,0.00000181,-0.00000028,-
 0.00000063,0.00000216,-0.00000200,0.00000237,-0.00000422,-0.00000072,-
 0.00000040,0.00000098,-0.00000074,0.00000041,0.00000183,-0.00000437,0.
 00000068,0.00000087,0.00000210,-0.00000011,0.00000381,0.00000379,-0.00
 000075,0.00000597,-0.00000461,0.00000478,-0.00000209,0.00000216,-0.000
 00064,0.00000631,-0.00000422,-0.00000207,0.00000997,-0.00000345,0.0000
 0612,-0.00000316,0.00000307,-0.00000150,0.00000977,-0.00000301,-0.0000
 0279,0.00001050,0.00003195,0.00002863,0.00000033,0.00000568,-0.0000114
 6,0.00000189,-0.00001917,0.00001351,0.01141801,-0.01718766,-0.02163590
 ,-0.00537063,0.00770655,0.00883896,-0.06566872,0.15545507,-0.00005096,
 0.00002072,0.00000024,0.00000359,-0.00000961,-0.00001738,-0.00003850,0
 .00002057,0.00001325,0.00006361,0.00003698,0.00001359,-0.00044914,0.00
 012552,-0.00006424,0.00004721,-0.00011022,0.00004630,0.00066686,-0.000
 37580,0.00037454,0.00004625,-0.00059665,0.00056669,-0.00130668,0.00361
 887,0.00472119,-0.00044702,0.00068539,-0.00026745,-0.00006321,-0.00000
 599,0.00013889,-0.00010297,0.00006095,-0.00006350,0.00001593,-0.000027
 77,0.00002615,-0.00002846,0.00001393,-0.00000556,0.00002242,-0.0000073
 4,0.00000657,-0.00001479,0.00000658,-0.00000101,0.00001818,-0.00000699
 ,0.00000220,-0.00002110,0.00000564,-0.00000212,0.00001436,0.00000081,0
 .00000127,-0.00000488,0.00000529,-0.00000069,0.00001302,-0.00000857,0.
 00000212,-0.00001427,0.00000886,-0.00000188,0.00001182,-0.00000426,0.0
 0000159,-0.00000459,0.00000782,0.00000178,0.00001121,-0.00000730,-0.00
 000263,0.00000415,-0.00000099,-0.00000020,-0.00001724,0.00000244,0.000
 00952,-0.00000878,-0.00001391,-0.00002464,0.00008521,0.00004251,-0.000
 17200,0.00000003,0.00000134,-0.00000169,0.00000221,0.00000036,0.000000
 42,0.00000386,0.00000074,0.00000265,-0.00001174,0.00000174,0.00000076,
 -0.00000096,0.00000102,-0.00000105,-0.00000039,0.00000135,0.00000031,-
 0.00000396,0.00000127,-0.00000143,-0.00000424,-0.00000150,-0.00000078,
 -0.00000406,-0.00000393,-0.00000021,-0.00000194,-0.00000584,-0.0000114
 2,0.06830084,-0.11034075,-0.17283466,0.00000325,-0.00000109,0.00000019
 ,-0.00001906,-0.00002189,-0.00000376,-0.00000987,-0.00000810,0.0000033
 9,-0.00000463,0.00000337,0.00000614,0.00000612,0.00001093,0.00000124,0
 .00000776,-0.00000156,-0.00000396,-0.00022956,0.00046243,-0.00059345,0
 .00000465,0.00015638,-0.00012831,-0.00011704,-0.00000360,-0.00041777,0
 .00001166,-0.00005680,0.00005916,-0.00000459,0.00001121,-0.00003679,-0
 .00000092,-0.00000088,-0.00000348,-0.00000356,-0.00000230,-0.00000094,
 -0.00000151,0.00000022,-0.00000046,-0.00000269,-0.00000179,-0.00000037
 ,-0.00000290,-0.00000042,-0.00000037,-0.00000029,0.00000057,-0.0000003
 6,-0.00000242,-0.00000069,-0.00000029,-0.00000221,0.00000106,-0.000000
 45,-0.00000089,0.00000044,-0.00000083,0.00000591,-0.00000075,0.0000061
 8,-0.00001613,-0.00000706,-0.00001075,0.00001163,-0.00000042,0.0000090
 6,0.00001219,0.00000668,-0.00000928,-0.00001889,0.00000371,0.00000839,
 -0.00000134,-0.00000905,0.00000570,-0.00002622,-0.00003920,0.00004618,
 -0.00006667,0.00007528,0.00010950,0.00000983,-0.00000487,-0.00002104,-
 0.00000209,-0.00000058,-0.00000009,0.00000067,-0.00000033,0.00000085,-
 0.00000128,-0.00000204,0.00000023,-0.00000003,0.00000078,-0.00000001,-
 0.00000159,-0.00000430,0.00000116,-0.00000145,-0.00000202,-0.00000128,
 -0.00000205,-0.00000061,0.00000047,0.00000137,-0.00000106,-0.00000047,
 0.00000093,-0.00000005,-0.00000018,0.00000085,-0.00000099,0.00000112,-
 0.00000185,-0.00000022,-0.00000009,0.00000049,-0.00000037,0.00000008,0
 .00000084,-0.00000211,0.00000035,0.00000044,0.00000097,-0.00000004,0.0
 0000162,0.00000158,0.,0.00000266,-0.00000204,0.00000225,-0.00000103,0.
 00000085,-0.00000024,0.00000271,-0.00000175,-0.00000087,0.00000419,-0.
 00000130,0.00000283,-0.00000159,0.00000112,-0.00000048,0.00000411,-0.0
 0000128,-0.00000139,0.00000615,0.00000240,0.00000030,0.00000463,0.0000
 0328,0.00000309,0.00000078,-0.00000410,0.00000152,-0.00305348,0.003443
 21,0.00377541,0.01102845,-0.01927460,-0.02157859,-0.07426696,0.1221304
 3,0.18631617||-0.00000548,-0.00000034,-0.00000193,0.00000009,0.0000005
 1,0.00000065,-0.00000012,-0.00000893,0.00000035,0.00000345,0.00000601,
 0.00000308,-0.00000624,-0.00000279,0.00000160,0.00000501,0.00000010,-0
 .00000049,0.00000114,0.00000367,-0.00000036,0.00000129,-0.00000632,-0.
 00000005,-0.00000363,0.00001218,-0.00000167,0.00000246,-0.00000392,0.0
 0000318,-0.00000309,-0.00000102,-0.00000054,0.00000713,0.00000406,0.00
 000239,-0.00000924,-0.00000145,0.00000188,0.00000522,0.00000317,-0.000
 00234,-0.00000304,-0.00000688,0.00000099,0.00000301,0.00000691,-0.0000
 0047,-0.00000489,-0.00000377,-0.00000206,0.00000891,0.00000212,0.00000
 262,-0.00000747,-0.00000341,0.00000234,0.00000317,0.00000087,-0.000000
 40,-0.00000281,0.00000461,0.00000163,0.00000357,-0.00001222,0.00000215
 ,-0.00000095,0.00000614,-0.00000205,-0.00000102,-0.00000379,0.00000045
 ,0.00000610,0.00000339,0.00000169,-0.00000481,-0.00000007,-0.00000125,
 0.00000132,-0.00000170,-0.00000240,-0.00000478,0.00000481,-0.00000242,
 0.00000039,0.00000114,-0.00000161,0.00000565,-0.00000002,-0.00000117,-
 0.00000012,-0.00000017,0.00000062,0.00000018,0.00000868,-0.00000202,-0
 .00000408,-0.00000493,0.00000423,-0.00000122,0.00000083,-0.00000278,0.
 00000500,-0.00000533,-0.00000037,-0.00000022,-0.00000159,-0.00000130,0
 .00000186,0.00000503,-0.00000121,-0.00000117,0.00000357,-0.00000005,0.
 00000108,-0.00000345,0.00000107,-0.00000179,-0.00000523,-0.00000007,-0
 .00000163,-0.00000075,0.00000203,0.00000222,0.00000140,0.00000071,-0.0
 0000082,0.00000229,-0.00000137,0.00000054,-0.00000217,-0.00000139,-0.0
 0000102,0.00000277,0.00000260,-0.00000224,0.00000184,-0.00000192,-0.00
 000201,-0.00000151,-0.00000165,0.00000014,-0.00000030,-0.00000145,0.00
 000007,-0.00000054,-0.00000070,0.00000044,-0.00000079,-0.00000071,-0.0
 0000076,0.00000008,-0.00000012,-0.00000017,-0.00000046,0.00000002,0.00
 000081,0.00000023,-0.00000042,-0.00000071,-0.00000035,-0.00000044,0.00
 000017,0.00000045,-0.00000007,0.00000077,-0.00000011,0.,-0.00000029,0.
 00000055,-0.00000089,0.00000003,0.00000033,-0.00000078,0.00000024,-0.0
 0000013,-0.00000170,0.00000222,0.00000106,-0.00000183,-0.00000085,0.00
 000185,0.00000078,0.00000100,0.00000044,0.00000079,-0.00000092,-0.0000
 0045,-0.00000090,-0.00000034,-0.00000233,0.00000292,0.00000188,-0.0000
 0201,0.00000143,-0.00000103,0.00000067,0.00000009,-0.00000129,0.000000
 05,-0.00000082,-0.00000068,-0.00000098,0.00000251,-0.00000185,-0.00000
 207,-0.00000219,-0.00000229,-0.00000123,0.00000071,0.00000135,0.000001
 33,0.00000200,0.00000095,-0.00000253,-0.00000053,-0.00000037,0.0000017
 0,-0.00000204,0.00000071,-0.00000196,0.00000339,0.00000242,-0.00000223
 ,-0.00000107,-0.00000113,-0.00000022,0.00000080,0.00000081,-0.00000019
 ,-0.00000060,0.00000067,-0.00000155,0.00000137,0.00000005,0.00000313,0
 .00000227,-0.00000203,0.00000229,0.00000060,0.00000099,-0.00000062,0.0
 0000040,0.00000143,-0.00000027,-0.00000060,0.00000035,0.00000165,0.000
 00224,0.00000218,0.00000145,-0.00000241,0.00000074,0.,0.00000222,-0.00
 000031,-0.00000028,-0.00000096,0.00000066,-0.00000192,-0.00000117,0.00
 000009,-0.00000145,0.00000088,-0.00000030,0.00000003,0.00000105,0.0000
 0117,-0.00000097,-0.00000275,-0.00000078,0.00000018,-0.00000306,-0.000
 00018,0.00000162,0.00000041,0.00000012,0.00000031,0.00000107,0.0000004
 4,0.00000006,-0.00000098,-0.00000048,0.00000153,-0.00000171,-0.0000010
 8,0.00000057,0.00000203|||@


 CHARLIE BROWN..'I CAN'T GET THAT STUPID KITE IN THE   
 AIR... I CAN'T... I C A N N O T...'                          
 LUCY..'OH COME NOW CHARLIE BROWN...THAT'S NO WAY TO TALK...  
 THE TROUBLE WITH YOU IS YOU DON'T BELIEVE IN YOURSELF... YOU 
 DON'T BELIEVE IN YOUR OWN ABILITIES...  YOU'VE GOT TO SAY TO 
 YOURSELF...'I BELIEVE I CAN FLY THIS KITE.'... GO AHEAD SAY  
 IT....'
 CHARLIE BROWN..'I BELIEVE THAT I CAN FLY THIS STUPID  
 KITE.....I BELIEVE THAT I CAN FLY THIS KITE........          
 I  A C T U A L L Y  B E L I E V E  T H A T  I  C A N ******' 
 LUCY..'I'LL BET YOU TEN-TO-ONE YOU'RE WRONG.......'    SCHULZ
 Job cpu time:  0 days  1 hours 53 minutes 24.0 seconds.
 File lengths (MBytes):  RWF=   5094 Int=      0 D2E=      0 Chk=     38 Scr=      1
 Normal termination of Gaussian 09 at Thu Oct 26 01:13:01 2023.
