 Entering Link 1 = D:\G09W\l1.exe PID=     17920.
  
 Copyright (c) 1988,1990,1992,1993,1995,1998,2003,2009, Gaussian, Inc.
                  All Rights Reserved.
  
 This is part of the Gaussian(R) 09 program.  It is based on
 the Gaussian(R) 03 system (copyright 2003, Gaussian, Inc.),
 the Gaussian(R) 98 system (copyright 1998, Gaussian, Inc.),
 the Gaussian(R) 94 system (copyright 1995, Gaussian, Inc.),
 the Gaussian 92(TM) system (copyright 1992, Gaussian, Inc.),
 the Gaussian 90(TM) system (copyright 1990, Gaussian, Inc.),
 the Gaussian 88(TM) system (copyright 1988, Gaussian, Inc.),
 the Gaussian 86(TM) system (copyright 1986, Carnegie Mellon
 University), and the Gaussian 82(TM) system (copyright 1983,
 Carnegie Mellon University). Gaussian is a federally registered
 trademark of Gaussian, Inc.
  
 This software contains proprietary and confidential information,
 including trade secrets, belonging to Gaussian, Inc.
  
 This software is provided under written license and may be
 used, copied, transmitted, or stored only in accord with that
 written license.
  
 The following legend is applicable only to US Government
 contracts under FAR:
  
                    RESTRICTED RIGHTS LEGEND
  
 Use, reproduction and disclosure by the US Government is
 subject to restrictions as set forth in subparagraphs (a)
 and (c) of the Commercial Computer Software - Restricted
 Rights clause in FAR 52.227-19.
  
 Gaussian, Inc.
 340 Quinnipiac St., Bldg. 40, Wallingford CT 06492
  
  
 ---------------------------------------------------------------
 Warning -- This program may not be used in any manner that
 competes with the business of Gaussian, Inc. or will provide
 assistance to any competitor of Gaussian, Inc.  The licensee
 of this program is prohibited from giving any competitor of
 Gaussian, Inc. access to this program.  By using this program,
 the user acknowledges that Gaussian, Inc. is engaged in the
 business of creating and licensing software in the field of
 computational chemistry and represents and warrants to the
 licensee that it is not a competitor of Gaussian, Inc. and that
 it will not use this program in any manner prohibited above.
 ---------------------------------------------------------------
  

 Cite this work as:
 Gaussian 09, Revision A.02,
 M. J. Frisch, G. W. Trucks, H. B. Schlegel, G. E. Scuseria, 
 M. A. Robb, J. R. Cheeseman, G. Scalmani, V. Barone, B. Mennucci, 
 G. A. Petersson, H. Nakatsuji, M. Caricato, X. Li, H. P. Hratchian, 
 A. F. Izmaylov, J. Bloino, G. Zheng, J. L. Sonnenberg, M. Hada, 
 M. Ehara, K. Toyota, R. Fukuda, J. Hasegawa, M. Ishida, T. Nakajima, 
 Y. Honda, O. Kitao, H. Nakai, T. Vreven, J. A. Montgomery, Jr., 
 J. E. Peralta, F. Ogliaro, M. Bearpark, J. J. Heyd, E. Brothers, 
 K. N. Kudin, V. N. Staroverov, R. Kobayashi, J. Normand, 
 K. Raghavachari, A. Rendell, J. C. Burant, S. S. Iyengar, J. Tomasi, 
 M. Cossi, N. Rega, J. M. Millam, M. Klene, J. E. Knox, J. B. Cross, 
 V. Bakken, C. Adamo, J. Jaramillo, R. Gomperts, R. E. Stratmann, 
 O. Yazyev, A. J. Austin, R. Cammi, C. Pomelli, J. W. Ochterski, 
 R. L. Martin, K. Morokuma, V. G. Zakrzewski, G. A. Voth, 
 P. Salvador, J. J. Dannenberg, S. Dapprich, A. D. Daniels, 
 O. Farkas, J. B. Foresman, J. V. Ortiz, J. Cioslowski, 
 and D. J. Fox, Gaussian, Inc., Wallingford CT, 2009.
 
 ******************************************
 Gaussian 09:  IA32W-G09RevA.02 11-Jun-2009
                27-Oct-2023 
 ******************************************
 %nprocshared=4
 Will use up to    4 processors via shared memory.
 %mem=1175MB
 ---------------------------------------------------------
 # opt freq b3lyp/6-311+g(2d,p) scrf=(smd,solvent=ethanol)
 ---------------------------------------------------------
 1/14=-1,18=20,19=15,26=3,38=1/1,3;
 2/9=110,12=2,17=6,18=5,40=1/2;
 3/5=4,6=6,7=112,11=2,16=1,25=1,30=1,70=32201,71=1,72=4,74=-5/1,2,3;
 4//1;
 5/5=2,38=5,53=4/2;
 6/7=2,8=2,9=2,10=2,28=1/1;
 7//1,2,3,16;
 1/14=-1,18=20,19=15/3(2);
 2/9=110/2;
 99//99;
 2/9=110/2;
 3/5=4,6=6,7=112,11=2,16=1,25=1,30=1,70=32205,71=1,72=4,74=-5/1,2,3;
 4/5=5,16=3/1;
 5/5=2,38=5,53=4/2;
 7//1,2,3,16;
 1/14=-1,18=20,19=15/3(-5);
 2/9=110/2;
 6/7=2,8=2,9=2,10=2,19=2,28=1/1;
 99/9=1/99;
 ---
 A-2
 ---
 Symbolic Z-matrix:
 Charge =  1 Multiplicity = 1
 C                    -1.1906    1.11033  -0.25219 
 C                     0.06487   0.50376  -0.17303 
 C                     1.26058   1.21734  -0.20808 
 C                     2.59341   0.77423  -0.13577 
 C                    -2.40555   0.42172  -0.16655 
 S                     3.84131   1.9763    0.16666 
 C                     5.09778   0.75089   0.12132 
 C                     4.53609  -0.51379  -0.11272 
 N                     3.13881  -0.46611  -0.27431 
 S                    -2.53182  -1.31165   0.12269 
 C                    -4.29178  -1.22561   0.09408 
 C                    -4.71539   0.09412  -0.12448 
 N                    -3.64126   0.98406  -0.28637 
 C                    -5.20152  -2.26565   0.26387 
 C                    -6.56176  -1.96203   0.21685 
 C                    -6.99171  -0.64557   0.0075 
 C                    -6.08052   0.39505  -0.16359 
 C                     6.47152   0.91838   0.28575 
 C                     7.28358  -0.21175   0.2161 
 C                     6.72792  -1.47785  -0.01228 
 C                     5.35483  -1.64614  -0.1779 
 C                    -3.85023   2.42231  -0.53756 
 C                    -3.91532   3.24771   0.74841 
 C                     2.38743  -1.66963  -0.67261 
 C                     1.94907  -2.52976   0.51436 
 H                    -1.2275    2.18729  -0.37663 
 H                     0.09027  -0.57368  -0.04361 
 H                     1.16804   2.30068  -0.24051 
 H                    -4.8623   -3.28298   0.43014 
 H                    -7.29119  -2.75472   0.34775 
 H                    -8.0541   -0.42555  -0.02021 
 H                    -6.43379   1.40893  -0.3142 
 H                     6.89579   1.90128   0.46324 
 H                     8.3563   -0.10785   0.34282 
 H                     7.3751   -2.3478   -0.05886 
 H                     4.94409  -2.63553  -0.34415 
 H                    -3.04777   2.76386  -1.19498 
 H                    -4.77459   2.5116   -1.1121 
 H                    -4.0844    4.30038   0.50029 
 H                    -4.7341    2.91245   1.39234 
 H                    -2.9823    3.17446   1.31562 
 H                     1.53989  -1.33861  -1.27555 
 H                     3.03854  -2.23772  -1.34193 
 H                     1.29695  -1.97793   1.19871 
 H                     1.40429  -3.40668   0.14968 
 H                     2.81197  -2.88031   1.0883 
 

 GradGradGradGradGradGradGradGradGradGradGradGradGradGradGradGradGradGrad
 Berny optimization.
 Initialization pass.
                           ----------------------------
                           !    Initial Parameters    !
                           ! (Angstroms and Degrees)  !
 --------------------------                            --------------------------
 ! Name  Definition              Value          Derivative Info.                !
 --------------------------------------------------------------------------------
 ! R1    R(1,2)                  1.3966         estimate D2E/DX2                !
 ! R2    R(1,5)                  1.3992         estimate D2E/DX2                !
 ! R3    R(1,26)                 1.0848         estimate D2E/DX2                !
 ! R4    R(2,3)                  1.3929         estimate D2E/DX2                !
 ! R5    R(2,27)                 1.0855         estimate D2E/DX2                !
 ! R6    R(3,4)                  1.4064         estimate D2E/DX2                !
 ! R7    R(3,28)                 1.0878         estimate D2E/DX2                !
 ! R8    R(4,6)                  1.7589         estimate D2E/DX2                !
 ! R9    R(4,9)                  1.362          estimate D2E/DX2                !
 ! R10   R(5,10)                 1.7619         estimate D2E/DX2                !
 ! R11   R(5,13)                 1.3629         estimate D2E/DX2                !
 ! R12   R(6,7)                  1.7557         estimate D2E/DX2                !
 ! R13   R(7,8)                  1.4035         estimate D2E/DX2                !
 ! R14   R(7,18)                 1.3937         estimate D2E/DX2                !
 ! R15   R(8,9)                  1.4074         estimate D2E/DX2                !
 ! R16   R(8,21)                 1.3989         estimate D2E/DX2                !
 ! R17   R(9,24)                 1.4737         estimate D2E/DX2                !
 ! R18   R(10,11)                1.7623         estimate D2E/DX2                !
 ! R19   R(11,12)                1.4032         estimate D2E/DX2                !
 ! R20   R(11,14)                1.3922         estimate D2E/DX2                !
 ! R21   R(12,13)                1.4043         estimate D2E/DX2                !
 ! R22   R(12,17)                1.3985         estimate D2E/DX2                !
 ! R23   R(13,22)                1.4749         estimate D2E/DX2                !
 ! R24   R(14,15)                1.3945         estimate D2E/DX2                !
 ! R25   R(14,29)                1.0852         estimate D2E/DX2                !
 ! R26   R(15,16)                1.4006         estimate D2E/DX2                !
 ! R27   R(15,30)                1.0852         estimate D2E/DX2                !
 ! R28   R(16,17)                1.3937         estimate D2E/DX2                !
 ! R29   R(16,31)                1.0853         estimate D2E/DX2                !
 ! R30   R(17,32)                1.0842         estimate D2E/DX2                !
 ! R31   R(18,19)                1.3934         estimate D2E/DX2                !
 ! R32   R(18,33)                1.0852         estimate D2E/DX2                !
 ! R33   R(19,20)                1.4014         estimate D2E/DX2                !
 ! R34   R(19,34)                1.0852         estimate D2E/DX2                !
 ! R35   R(20,21)                1.3932         estimate D2E/DX2                !
 ! R36   R(20,35)                1.0853         estimate D2E/DX2                !
 ! R37   R(21,36)                1.0841         estimate D2E/DX2                !
 ! R38   R(22,23)                1.5295         estimate D2E/DX2                !
 ! R39   R(22,37)                1.0922         estimate D2E/DX2                !
 ! R40   R(22,38)                1.092          estimate D2E/DX2                !
 ! R41   R(23,39)                1.0947         estimate D2E/DX2                !
 ! R42   R(23,40)                1.0943         estimate D2E/DX2                !
 ! R43   R(23,41)                1.0944         estimate D2E/DX2                !
 ! R44   R(24,25)                1.53           estimate D2E/DX2                !
 ! R45   R(24,42)                1.0915         estimate D2E/DX2                !
 ! R46   R(24,43)                1.093          estimate D2E/DX2                !
 ! R47   R(25,44)                1.0946         estimate D2E/DX2                !
 ! R48   R(25,45)                1.0949         estimate D2E/DX2                !
 ! R49   R(25,46)                1.094          estimate D2E/DX2                !
 ! A1    A(2,1,5)              124.2906         estimate D2E/DX2                !
 ! A2    A(2,1,26)             117.9238         estimate D2E/DX2                !
 ! A3    A(5,1,26)             117.7816         estimate D2E/DX2                !
 ! A4    A(1,2,3)              123.2143         estimate D2E/DX2                !
 ! A5    A(1,2,27)             117.3166         estimate D2E/DX2                !
 ! A6    A(3,2,27)             119.4339         estimate D2E/DX2                !
 ! A7    A(2,3,4)              130.6034         estimate D2E/DX2                !
 ! A8    A(2,3,28)             115.9722         estimate D2E/DX2                !
 ! A9    A(4,3,28)             113.3244         estimate D2E/DX2                !
 ! A10   A(3,4,6)              117.7672         estimate D2E/DX2                !
 ! A11   A(3,4,9)              131.3892         estimate D2E/DX2                !
 ! A12   A(6,4,9)              110.8398         estimate D2E/DX2                !
 ! A13   A(1,5,10)             123.8126         estimate D2E/DX2                !
 ! A14   A(1,5,13)             125.3702         estimate D2E/DX2                !
 ! A15   A(10,5,13)            110.8166         estimate D2E/DX2                !
 ! A16   A(4,6,7)               91.5072         estimate D2E/DX2                !
 ! A17   A(6,7,8)              110.2939         estimate D2E/DX2                !
 ! A18   A(6,7,18)             128.2075         estimate D2E/DX2                !
 ! A19   A(8,7,18)             121.4984         estimate D2E/DX2                !
 ! A20   A(7,8,9)              112.7031         estimate D2E/DX2                !
 ! A21   A(7,8,21)             120.1963         estimate D2E/DX2                !
 ! A22   A(9,8,21)             127.0966         estimate D2E/DX2                !
 ! A23   A(4,9,8)              114.6285         estimate D2E/DX2                !
 ! A24   A(4,9,24)             124.5445         estimate D2E/DX2                !
 ! A25   A(8,9,24)             120.635          estimate D2E/DX2                !
 ! A26   A(5,10,11)             91.1961         estimate D2E/DX2                !
 ! A27   A(10,11,12)           110.4836         estimate D2E/DX2                !
 ! A28   A(10,11,14)           127.8905         estimate D2E/DX2                !
 ! A29   A(12,11,14)           121.6246         estimate D2E/DX2                !
 ! A30   A(11,12,13)           112.5251         estimate D2E/DX2                !
 ! A31   A(11,12,17)           120.0956         estimate D2E/DX2                !
 ! A32   A(13,12,17)           127.3792         estimate D2E/DX2                !
 ! A33   A(5,13,12)            114.9546         estimate D2E/DX2                !
 ! A34   A(5,13,22)            123.0778         estimate D2E/DX2                !
 ! A35   A(12,13,22)           121.9546         estimate D2E/DX2                !
 ! A36   A(11,14,15)           118.0765         estimate D2E/DX2                !
 ! A37   A(11,14,29)           120.981          estimate D2E/DX2                !
 ! A38   A(15,14,29)           120.9424         estimate D2E/DX2                !
 ! A39   A(14,15,16)           120.6044         estimate D2E/DX2                !
 ! A40   A(14,15,30)           119.5094         estimate D2E/DX2                !
 ! A41   A(16,15,30)           119.8859         estimate D2E/DX2                !
 ! A42   A(15,16,17)           121.2951         estimate D2E/DX2                !
 ! A43   A(15,16,31)           119.6604         estimate D2E/DX2                !
 ! A44   A(17,16,31)           119.0443         estimate D2E/DX2                !
 ! A45   A(12,17,16)           118.301          estimate D2E/DX2                !
 ! A46   A(12,17,32)           121.5468         estimate D2E/DX2                !
 ! A47   A(16,17,32)           120.1503         estimate D2E/DX2                !
 ! A48   A(7,18,19)            118.1057         estimate D2E/DX2                !
 ! A49   A(7,18,33)            120.8996         estimate D2E/DX2                !
 ! A50   A(19,18,33)           120.9947         estimate D2E/DX2                !
 ! A51   A(18,19,20)           120.653          estimate D2E/DX2                !
 ! A52   A(18,19,34)           119.5129         estimate D2E/DX2                !
 ! A53   A(20,19,34)           119.834          estimate D2E/DX2                !
 ! A54   A(19,20,21)           121.283          estimate D2E/DX2                !
 ! A55   A(19,20,35)           119.6531         estimate D2E/DX2                !
 ! A56   A(21,20,35)           119.0636         estimate D2E/DX2                !
 ! A57   A(8,21,20)            118.2625         estimate D2E/DX2                !
 ! A58   A(8,21,36)            121.612          estimate D2E/DX2                !
 ! A59   A(20,21,36)           120.1236         estimate D2E/DX2                !
 ! A60   A(13,22,23)           112.8981         estimate D2E/DX2                !
 ! A61   A(13,22,37)           107.6602         estimate D2E/DX2                !
 ! A62   A(13,22,38)           106.8144         estimate D2E/DX2                !
 ! A63   A(23,22,37)           111.6305         estimate D2E/DX2                !
 ! A64   A(23,22,38)           111.2364         estimate D2E/DX2                !
 ! A65   A(37,22,38)           106.2403         estimate D2E/DX2                !
 ! A66   A(22,23,39)           109.5705         estimate D2E/DX2                !
 ! A67   A(22,23,40)           111.1789         estimate D2E/DX2                !
 ! A68   A(22,23,41)           111.3079         estimate D2E/DX2                !
 ! A69   A(39,23,40)           108.2062         estimate D2E/DX2                !
 ! A70   A(39,23,41)           108.2725         estimate D2E/DX2                !
 ! A71   A(40,23,41)           108.2048         estimate D2E/DX2                !
 ! A72   A(9,24,25)            113.2988         estimate D2E/DX2                !
 ! A73   A(9,24,42)            107.3095         estimate D2E/DX2                !
 ! A74   A(9,24,43)            106.634          estimate D2E/DX2                !
 ! A75   A(25,24,42)           112.1204         estimate D2E/DX2                !
 ! A76   A(25,24,43)           110.7048         estimate D2E/DX2                !
 ! A77   A(42,24,43)           106.3739         estimate D2E/DX2                !
 ! A78   A(24,25,44)           111.8586         estimate D2E/DX2                !
 ! A79   A(24,25,45)           109.5374         estimate D2E/DX2                !
 ! A80   A(24,25,46)           111.1702         estimate D2E/DX2                !
 ! A81   A(44,25,45)           108.3969         estimate D2E/DX2                !
 ! A82   A(44,25,46)           107.6646         estimate D2E/DX2                !
 ! A83   A(45,25,46)           108.0931         estimate D2E/DX2                !
 ! D1    D(5,1,2,3)           -177.3752         estimate D2E/DX2                !
 ! D2    D(5,1,2,27)             0.4511         estimate D2E/DX2                !
 ! D3    D(26,1,2,3)             1.8782         estimate D2E/DX2                !
 ! D4    D(26,1,2,27)          179.7045         estimate D2E/DX2                !
 ! D5    D(2,1,5,10)             2.6798         estimate D2E/DX2                !
 ! D6    D(2,1,5,13)          -177.6307         estimate D2E/DX2                !
 ! D7    D(26,1,5,10)         -176.5746         estimate D2E/DX2                !
 ! D8    D(26,1,5,13)            3.1149         estimate D2E/DX2                !
 ! D9    D(1,2,3,4)            179.7085         estimate D2E/DX2                !
 ! D10   D(1,2,3,28)             3.6343         estimate D2E/DX2                !
 ! D11   D(27,2,3,4)             1.926          estimate D2E/DX2                !
 ! D12   D(27,2,3,28)         -174.1482         estimate D2E/DX2                !
 ! D13   D(2,3,4,6)           -165.9248         estimate D2E/DX2                !
 ! D14   D(2,3,4,9)             14.8699         estimate D2E/DX2                !
 ! D15   D(28,3,4,6)            10.2319         estimate D2E/DX2                !
 ! D16   D(28,3,4,9)          -168.9733         estimate D2E/DX2                !
 ! D17   D(3,4,6,7)            179.88           estimate D2E/DX2                !
 ! D18   D(9,4,6,7)             -0.758          estimate D2E/DX2                !
 ! D19   D(3,4,9,8)           -179.1379         estimate D2E/DX2                !
 ! D20   D(3,4,9,24)             5.8891         estimate D2E/DX2                !
 ! D21   D(6,4,9,8)              1.6145         estimate D2E/DX2                !
 ! D22   D(6,4,9,24)          -173.3585         estimate D2E/DX2                !
 ! D23   D(1,5,10,11)          179.0341         estimate D2E/DX2                !
 ! D24   D(13,5,10,11)          -0.6951         estimate D2E/DX2                !
 ! D25   D(1,5,13,12)         -178.219          estimate D2E/DX2                !
 ! D26   D(1,5,13,22)            0.4956         estimate D2E/DX2                !
 ! D27   D(10,5,13,12)           1.505          estimate D2E/DX2                !
 ! D28   D(10,5,13,22)        -179.7804         estimate D2E/DX2                !
 ! D29   D(4,6,7,8)             -0.2582         estimate D2E/DX2                !
 ! D30   D(4,6,7,18)           179.8722         estimate D2E/DX2                !
 ! D31   D(6,7,8,9)              1.1959         estimate D2E/DX2                !
 ! D32   D(6,7,8,21)          -179.4763         estimate D2E/DX2                !
 ! D33   D(18,7,8,9)          -178.9243         estimate D2E/DX2                !
 ! D34   D(18,7,8,21)            0.4035         estimate D2E/DX2                !
 ! D35   D(6,7,18,19)          179.6479         estimate D2E/DX2                !
 ! D36   D(6,7,18,33)           -0.3341         estimate D2E/DX2                !
 ! D37   D(8,7,18,19)           -0.2086         estimate D2E/DX2                !
 ! D38   D(8,7,18,33)          179.8094         estimate D2E/DX2                !
 ! D39   D(7,8,9,4)             -1.855          estimate D2E/DX2                !
 ! D40   D(7,8,9,24)           173.3331         estimate D2E/DX2                !
 ! D41   D(21,8,9,4)           178.8733         estimate D2E/DX2                !
 ! D42   D(21,8,9,24)           -5.9385         estimate D2E/DX2                !
 ! D43   D(7,8,21,20)           -0.338          estimate D2E/DX2                !
 ! D44   D(7,8,21,36)          179.162          estimate D2E/DX2                !
 ! D45   D(9,8,21,20)          178.8845         estimate D2E/DX2                !
 ! D46   D(9,8,21,36)           -1.6154         estimate D2E/DX2                !
 ! D47   D(4,9,24,25)          -97.1401         estimate D2E/DX2                !
 ! D48   D(4,9,24,42)           27.1681         estimate D2E/DX2                !
 ! D49   D(4,9,24,43)          140.8264         estimate D2E/DX2                !
 ! D50   D(8,9,24,25)           88.1717         estimate D2E/DX2                !
 ! D51   D(8,9,24,42)         -147.5201         estimate D2E/DX2                !
 ! D52   D(8,9,24,43)          -33.8618         estimate D2E/DX2                !
 ! D53   D(5,10,11,12)          -0.2519         estimate D2E/DX2                !
 ! D54   D(5,10,11,14)        -179.8472         estimate D2E/DX2                !
 ! D55   D(10,11,12,13)          1.1239         estimate D2E/DX2                !
 ! D56   D(10,11,12,17)       -179.007          estimate D2E/DX2                !
 ! D57   D(14,11,12,13)       -179.2511         estimate D2E/DX2                !
 ! D58   D(14,11,12,17)          0.6179         estimate D2E/DX2                !
 ! D59   D(10,11,14,15)        179.2905         estimate D2E/DX2                !
 ! D60   D(10,11,14,29)         -0.5809         estimate D2E/DX2                !
 ! D61   D(12,11,14,15)         -0.2644         estimate D2E/DX2                !
 ! D62   D(12,11,14,29)        179.8643         estimate D2E/DX2                !
 ! D63   D(11,12,13,5)          -1.7347         estimate D2E/DX2                !
 ! D64   D(11,12,13,22)        179.5347         estimate D2E/DX2                !
 ! D65   D(17,12,13,5)         178.4079         estimate D2E/DX2                !
 ! D66   D(17,12,13,22)         -0.3227         estimate D2E/DX2                !
 ! D67   D(11,12,17,16)         -0.5423         estimate D2E/DX2                !
 ! D68   D(11,12,17,32)        178.9564         estimate D2E/DX2                !
 ! D69   D(13,12,17,16)        179.3055         estimate D2E/DX2                !
 ! D70   D(13,12,17,32)         -1.1957         estimate D2E/DX2                !
 ! D71   D(5,13,22,23)         -88.1427         estimate D2E/DX2                !
 ! D72   D(5,13,22,37)          35.528          estimate D2E/DX2                !
 ! D73   D(5,13,22,38)         149.2824         estimate D2E/DX2                !
 ! D74   D(12,13,22,23)         90.4838         estimate D2E/DX2                !
 ! D75   D(12,13,22,37)       -145.8456         estimate D2E/DX2                !
 ! D76   D(12,13,22,38)        -32.0912         estimate D2E/DX2                !
 ! D77   D(11,14,15,16)         -0.1445         estimate D2E/DX2                !
 ! D78   D(11,14,15,30)       -179.9143         estimate D2E/DX2                !
 ! D79   D(29,14,15,16)        179.7269         estimate D2E/DX2                !
 ! D80   D(29,14,15,30)         -0.0429         estimate D2E/DX2                !
 ! D81   D(14,15,16,17)          0.2062         estimate D2E/DX2                !
 ! D82   D(14,15,16,31)       -179.6226         estimate D2E/DX2                !
 ! D83   D(30,15,16,17)        179.9751         estimate D2E/DX2                !
 ! D84   D(30,15,16,31)          0.1464         estimate D2E/DX2                !
 ! D85   D(15,16,17,12)          0.1414         estimate D2E/DX2                !
 ! D86   D(15,16,17,32)       -179.3646         estimate D2E/DX2                !
 ! D87   D(31,16,17,12)        179.9712         estimate D2E/DX2                !
 ! D88   D(31,16,17,32)          0.4652         estimate D2E/DX2                !
 ! D89   D(7,18,19,20)          -0.038          estimate D2E/DX2                !
 ! D90   D(7,18,19,34)        -179.8825         estimate D2E/DX2                !
 ! D91   D(33,18,19,20)        179.944          estimate D2E/DX2                !
 ! D92   D(33,18,19,34)          0.0994         estimate D2E/DX2                !
 ! D93   D(18,19,20,21)          0.0934         estimate D2E/DX2                !
 ! D94   D(18,19,20,35)       -179.7141         estimate D2E/DX2                !
 ! D95   D(34,19,20,21)        179.9375         estimate D2E/DX2                !
 ! D96   D(34,19,20,35)          0.13           estimate D2E/DX2                !
 ! D97   D(19,20,21,8)           0.0961         estimate D2E/DX2                !
 ! D98   D(19,20,21,36)       -179.4116         estimate D2E/DX2                !
 ! D99   D(35,20,21,8)         179.9047         estimate D2E/DX2                !
 ! D100  D(35,20,21,36)          0.397          estimate D2E/DX2                !
 ! D101  D(13,22,23,39)       -179.2488         estimate D2E/DX2                !
 ! D102  D(13,22,23,40)        -59.6876         estimate D2E/DX2                !
 ! D103  D(13,22,23,41)         61.0262         estimate D2E/DX2                !
 ! D104  D(37,22,23,39)         59.3007         estimate D2E/DX2                !
 ! D105  D(37,22,23,40)        178.8619         estimate D2E/DX2                !
 ! D106  D(37,22,23,41)        -60.4243         estimate D2E/DX2                !
 ! D107  D(38,22,23,39)        -59.1804         estimate D2E/DX2                !
 ! D108  D(38,22,23,40)         60.3808         estimate D2E/DX2                !
 ! D109  D(38,22,23,41)       -178.9054         estimate D2E/DX2                !
 ! D110  D(9,24,25,44)          60.155          estimate D2E/DX2                !
 ! D111  D(9,24,25,45)        -179.6349         estimate D2E/DX2                !
 ! D112  D(9,24,25,46)         -60.2409         estimate D2E/DX2                !
 ! D113  D(42,24,25,44)        -61.4953         estimate D2E/DX2                !
 ! D114  D(42,24,25,45)         58.7148         estimate D2E/DX2                !
 ! D115  D(42,24,25,46)        178.1088         estimate D2E/DX2                !
 ! D116  D(43,24,25,44)        179.8881         estimate D2E/DX2                !
 ! D117  D(43,24,25,45)        -59.9018         estimate D2E/DX2                !
 ! D118  D(43,24,25,46)         59.4922         estimate D2E/DX2                !
 --------------------------------------------------------------------------------
 Trust Radius=3.00D-01 FncErr=1.00D-07 GrdErr=1.00D-06
 Number of steps in this run= 260 maximum allowed number of steps= 276.
 GradGradGradGradGradGradGradGradGradGradGradGradGradGradGradGradGradGrad

                          Input orientation:                          
 ---------------------------------------------------------------------
 Center     Atomic      Atomic             Coordinates (Angstroms)
 Number     Number       Type             X           Y           Z
 ---------------------------------------------------------------------
      1          6           0       -1.190596    1.110331   -0.252189
      2          6           0        0.064870    0.503760   -0.173033
      3          6           0        1.260582    1.217343   -0.208079
      4          6           0        2.593409    0.774234   -0.135768
      5          6           0       -2.405553    0.421724   -0.166554
      6         16           0        3.841306    1.976297    0.166664
      7          6           0        5.097780    0.750891    0.121317
      8          6           0        4.536089   -0.513790   -0.112723
      9          7           0        3.138811   -0.466105   -0.274309
     10         16           0       -2.531819   -1.311647    0.122694
     11          6           0       -4.291776   -1.225611    0.094080
     12          6           0       -4.715385    0.094122   -0.124481
     13          7           0       -3.641255    0.984057   -0.286366
     14          6           0       -5.201523   -2.265649    0.263870
     15          6           0       -6.561760   -1.962032    0.216853
     16          6           0       -6.991709   -0.645573    0.007496
     17          6           0       -6.080522    0.395050   -0.163592
     18          6           0        6.471523    0.918380    0.285754
     19          6           0        7.283576   -0.211752    0.216100
     20          6           0        6.727917   -1.477851   -0.012279
     21          6           0        5.354826   -1.646137   -0.177900
     22          6           0       -3.850229    2.422307   -0.537556
     23          6           0       -3.915324    3.247707    0.748408
     24          6           0        2.387430   -1.669626   -0.672612
     25          6           0        1.949065   -2.529762    0.514361
     26          1           0       -1.227500    2.187288   -0.376631
     27          1           0        0.090270   -0.573680   -0.043613
     28          1           0        1.168040    2.300675   -0.240512
     29          1           0       -4.862303   -3.282980    0.430142
     30          1           0       -7.291194   -2.754718    0.347750
     31          1           0       -8.054100   -0.425549   -0.020208
     32          1           0       -6.433788    1.408926   -0.314200
     33          1           0        6.895789    1.901277    0.463243
     34          1           0        8.356297   -0.107851    0.342819
     35          1           0        7.375100   -2.347799   -0.058857
     36          1           0        4.944088   -2.635527   -0.344154
     37          1           0       -3.047769    2.763855   -1.194976
     38          1           0       -4.774587    2.511597   -1.112102
     39          1           0       -4.084401    4.300381    0.500287
     40          1           0       -4.734096    2.912449    1.392344
     41          1           0       -2.982303    3.174455    1.315619
     42          1           0        1.539890   -1.338611   -1.275552
     43          1           0        3.038535   -2.237722   -1.341933
     44          1           0        1.296953   -1.977933    1.198713
     45          1           0        1.404286   -3.406679    0.149679
     46          1           0        2.811973   -2.880307    1.088302
 ---------------------------------------------------------------------
                    Distance matrix (angstroms):
                    1          2          3          4          5
     1  C    0.000000
     2  C    1.396563   0.000000
     3  C    2.453909   1.392895   0.000000
     4  C    3.800685   2.543237   1.406415   0.000000
     5  C    1.399155   2.471793   3.751704   5.011470   0.000000
     6  S    5.123024   4.067583   2.715986   1.758882   6.446005
     7  C    6.309705   5.047564   3.879455   2.517640   7.516065
     8  C    5.954170   4.585940   3.706057   2.330996   7.004604
     9  N    4.607538   3.224904   2.523119   1.362020   5.616033
    10  S    2.793813   3.182130   4.570285   5.539464   1.761869
    11  C    3.897928   4.694937   6.073550   7.173422   2.517832
    12  C    3.670576   4.798020   6.081184   7.340378   2.333327
    13  N    2.454148   3.738836   4.908009   6.240011   1.362913
    14  C    5.267931   5.966189   7.356138   8.376250   3.901882
    15  C    6.205547   7.081269   8.454468   9.561831   4.806594
    16  C    6.066593   7.151843   8.462697   9.690762   4.711926
    17  C    4.942758   6.146361   7.387148   8.682260   3.675067
    18  C    7.683378   6.436427   5.242819   3.903617   8.902456
    19  C    8.589458   7.264509   6.204732   4.805585   9.717352
    20  C    8.334212   6.953332   6.098702   4.709702   9.330191
    21  C    7.102548   5.710141   4.996325   3.672247   8.031168
    22  C    2.979323   4.375123   5.261262   6.663186   2.495408
    23  C    3.604679   4.921407   5.641564   7.018792   3.332078
    24  C    4.550515   3.219856   3.133715   2.510594   5.253811
    25  C    4.867787   3.636613   3.877722   3.428445   5.304490
    26  H    1.084751   2.132121   2.675772   4.080941   2.132875
    27  H    2.126033   1.085482   2.145797   2.844481   2.689810
    28  H    2.642010   2.109607   1.087761   2.091093   4.038130
    29  H    5.766124   6.243417   7.625612   8.506990   4.485142
    30  H    7.246780   8.062293   9.445586  10.506792   5.850109
    31  H    7.037075   8.173411   9.460322  10.715516   5.713613
    32  H    5.252054   6.562912   7.697486   9.051241   4.150066
    33  H    8.156412   7.001382   5.716117   4.487707   9.439316
    34  H    9.642674   8.329942   7.239392   5.849615  10.786905
    35  H    9.239437   7.847540   7.079536   5.711180  10.165777
    36  H    7.188481   5.804410   5.332105   4.146756   7.962132
    37  H    2.659338   3.980065   4.682687   6.074817   2.637361
    38  H    3.943094   5.322932   6.238238   7.632760   3.297568
    39  H    4.372270   5.664286   6.210938   7.578352   4.278690
    40  H    4.302152   5.593055   6.432022   7.784563   3.749131
    41  H    3.151007   4.316707   4.914674   6.241486   3.179152
    42  H    3.807905   2.604911   2.783956   2.621664   4.460401
    43  H    5.502958   4.210075   4.047742   3.274882   6.171893
    44  H    4.222605   3.091685   3.491443   3.322057   4.618534
    45  H    5.224777   4.146048   4.640067   4.356091   5.410318
    46  H    5.808844   4.537560   4.569262   3.860283   6.300845
                    6          7          8          9         10
     6  S    0.000000
     7  C    1.755677   0.000000
     8  C    2.600253   1.403456   0.000000
     9  N    2.579396   2.339906   1.407398   0.000000
    10  S    7.171418   7.903470   7.116693   5.747051   0.000000
    11  C    8.740967   9.595367   8.858931   7.478381   1.762291
    12  C    8.766089   9.838189   9.271433   7.875576   2.608686
    13  N    7.561646   8.751646   8.315206   6.933427   2.582331
    14  C    9.988809  10.732916   9.901107   8.549220   2.838551
    15  C   11.123702  11.971381  11.196798   9.827518   4.083172
    16  C   11.146917  12.170407  11.529178  10.136028   4.510825
    17  C   10.052466  11.187593  10.655562   9.260127   3.948173
    18  C    2.837501   1.393651   2.440451   3.652046   9.276841
    19  C    4.079121   2.390266   2.783529   4.181420   9.877271
    20  C    4.505073   2.764505   2.396584   3.738178   9.262211
    21  C    3.941002   2.429269   1.398852   2.512467   7.899456
    22  C    7.736573   9.126588   8.895588   7.566961   4.014542
    23  C    7.881638   9.373547   9.290683   8.037361   4.805550
    24  C    4.013838   3.719573   2.503232   1.473663   4.995966
    25  C    4.899596   4.564162   3.339172   2.509218   4.659992
    26  H    5.102204   6.505410   6.370591   5.110346   3.767376
    27  H    4.540580   5.182359   4.446759   3.059149   2.729030
    28  H    2.723484   4.239765   4.391047   3.397080   5.183604
    29  H   10.172621  10.750383   9.812894   8.511690   3.067871
    30  H   12.097432  12.877393  12.046511  10.696248   4.978429
    31  H   12.136905  13.205150  12.590838  11.195868   5.594746
    32  H   10.301975  11.558536  11.138924   9.754588   4.776793
    33  H    3.069764   2.161744   3.425269   4.501485   9.965874
    34  H    4.975927   3.377045   3.868629   5.266057  10.956671
    35  H    5.588950   3.849744   3.380307   4.640403   9.962611
    36  H    4.769275   3.421712   2.172968   2.823171   7.606562
    37  H    7.066376   8.493210   8.332414   7.039463   4.314183
    38  H    8.726706  10.103714   9.840753   8.496498   4.601296
    39  H    8.266166   9.851647   9.892668   8.688739   5.835062
    40  H    8.712990  10.146607   9.997033   8.727830   4.930012
    41  H    7.022629   8.519845   8.495265   7.297231   4.663809
    42  H    4.285454   4.356127   3.318088   2.078534   4.305187
    43  H    4.547336   3.913234   2.593370   2.070870   5.833660
    44  H    4.814020   4.801411   3.788876   2.801403   4.032524
    45  H    5.908958   5.561303   4.271516   3.440250   4.459014
    46  H    5.049311   4.398360   3.164718   2.791398   5.652363
                   11         12         13         14         15
    11  C    0.000000
    12  C    1.403178   0.000000
    13  N    2.334641   1.404260   0.000000
    14  C    1.392174   2.440423   3.646613   0.000000
    15  C    2.389606   2.784489   4.178758   1.394503   0.000000
    16  C    2.762893   2.397127   3.737324   2.427991   1.400625
    17  C    2.427457   1.398459   2.512375   2.834551   2.435603
    18  C   10.976431  11.224732  10.129162  12.099526  13.347958
    19  C   11.620309  12.007690  11.001562  12.653002  13.955530
    20  C   11.023093  11.551314  10.660949  11.958613  13.300468
    21  C    9.659593  10.219614   9.373322  10.583736  11.927307
    22  C    3.728436   2.517851   1.474900   4.944210   5.209987
    23  C    4.536566   3.368550   2.503993   5.682093   5.867500
    24  C    6.737712   7.339021   6.598201   7.669710   8.998036
    25  C    6.389487   7.190812   6.651298   7.159847   8.534927
    26  H    4.610774   4.075569   2.698541   6.002645   6.784056
    27  H    4.432415   4.852506   4.050895   5.564205   6.800358
    28  H    6.508167   6.284666   4.986472   7.853474   8.839098
    29  H    2.161297   3.425494   4.495770   1.085209   2.162996
    30  H    3.376244   3.869584   5.263326   2.147778   1.085154
    31  H    3.848148   3.380525   4.640154   3.406444   2.155007
    32  H    3.419897   2.172006   2.824806   3.918564   3.414931
    33  H   11.622191  11.765653  10.603419  12.796405  14.003267
    34  H   12.699804  13.081591  12.063556  13.728686  15.033372
    35  H   11.721719  12.334793  11.511434  12.581031  13.944924
    36  H    9.353133  10.040152   9.317341  10.170542  11.539188
    37  H    4.373221   3.324812   2.084581   5.662402   6.056022
    38  H    3.956603   2.612104   2.073562   4.989755   4.997346
    39  H    5.544781   4.298964   3.437035   6.664578   6.740583
    40  H    4.359435   3.200637   2.780479   5.320211   5.336919
    41  H    4.750522   3.816531   2.792565   5.968739   6.356359
    42  H    5.991410   6.519674   5.763466   6.976809   8.261517
    43  H    7.537902   8.187977   7.490906   8.395114   9.729927
    44  H    5.746311   6.495573   5.946826   6.571674   7.919828
    45  H    6.099612   7.055575   6.702700   6.704603   8.096259
    46  H    7.361368   8.184081   7.646383   8.079209   9.458833
                   16         17         18         19         20
    16  C    0.000000
    17  C    1.393711   0.000000
    18  C   13.556622  12.570983   0.000000
    19  C   14.283399  13.383254   1.393370   0.000000
    20  C   13.744861  12.945531   2.428268   1.401400   0.000000
    21  C   12.388399  11.616102   2.835266   2.435728   1.393244
    22  C    4.424688   3.037075  10.463183  11.465944  11.286466
    23  C    5.017043   3.695603  10.654877  11.733140  11.669967
    24  C    9.459359   8.730876   4.929103   5.185311   4.394615
    25  C    9.151203   8.572538   5.691623   5.824014   4.921513
    26  H    6.434187   5.177772   7.830954   8.862569   8.766679
    27  H    7.082528   6.247520   6.561640   7.207086   6.699020
    28  H    8.678905   7.495263   5.505872   6.627259   6.726186
    29  H    3.415979   3.919755  12.088337  12.529989  11.738289
    30  H    2.157303   3.412951  14.244573  14.795537  14.081743
    31  H    1.085289   2.142184  14.590870  15.340986  14.819427
    32  H    2.153075   1.084170  12.928559  13.822948  13.477949
    33  H   14.126456  13.078467   1.085168   2.162487   3.416549
    34  H   15.361083  14.454449   2.146807   1.085165   2.157456
    35  H   14.467452  13.732733   3.406337   2.155615   1.085276
    36  H   12.105653  11.434991   3.919196   3.414934   2.152301
    37  H    5.350215   3.984041   9.808938  10.843526  10.721701
    38  H    4.017070   2.661749  11.444096  12.433022  12.224275
    39  H    5.758276   4.435859  11.086545  12.234010  12.270163
    40  H    4.435554   3.251322  11.435329  12.472715  12.354167
    41  H    5.690267   4.417252   9.773706  10.865708  10.848762
    42  H    8.655328   7.893840   5.643819   6.040262   5.341430
    43  H   10.245081   9.564370   4.939206   4.955037   3.994612
    44  H    8.479157   7.868549   5.999858   6.318590   5.586766
    45  H    8.839494   8.400811   6.663448   6.691638   5.664597
    46  H   10.113079   9.558853   5.335392   5.279882   4.302648
                   21         22         23         24         25
    21  C    0.000000
    22  C   10.070483   0.000000
    23  C   10.523471   1.529453   0.000000
    24  C    3.008443   7.461270   8.119370   0.000000
    25  C    3.585976   7.698138   8.235593   1.530001   0.000000
    26  H    7.619820   2.638151   3.100742   5.294441   5.756300
    27  H    5.374360   4.974681   5.592413   2.621771   2.755487
    28  H    5.754166   5.028524   5.264544   4.175753   4.951056
    29  H   10.365264   5.874609   6.606658   7.508502   6.853405
    30  H   12.705396   6.278980   6.898270   9.792565   9.244498
    31  H   13.465289   5.103966   5.586864  10.535602  10.236053
    32  H   12.178810   2.784171   3.294376   9.349857   9.299032
    33  H    3.920431  10.805090  10.898365   5.862322   6.641295
    34  H    3.412668  12.497041  12.728588   6.252809   6.851839
    35  H    2.141964  12.206190  12.626759   5.070845   5.459262
    36  H    1.084084  10.146876  10.690899   2.752699   3.117434
    37  H    9.543903   1.092153   2.182546   7.033492   7.477470
    38  H   10.989290   1.092023   2.177542   8.304834   8.559683
    39  H   11.176763   2.158499   1.094657   8.882639   9.113384
    40  H   11.181803   2.178526   1.094276   8.716398   8.663322
    41  H    9.745585   2.180202   1.094359   7.500148   7.582776
    42  H    3.981601   6.613813   7.408784   1.091527   2.188619
    43  H    2.658975   8.355714   9.100308   1.093006   2.172109
    44  H    4.297847   6.990724   7.394452   2.187704   1.094579
    45  H    4.337463   7.877772   8.540350   2.158724   1.094879
    46  H    3.097183   8.668683   9.106295   2.178716   1.094029
                   26         27         28         29         30
    26  H    0.000000
    27  H    3.077395   0.000000
    28  H    2.402082   3.076081   0.000000
    29  H    6.617137   5.665045   8.245727   0.000000
    30  H    7.855987   7.706887   9.872269   2.487039   0.000000
    31  H    7.318225   8.145751   9.619184   4.307586   2.478396
    32  H    5.264521   6.824022   7.654308   5.003758   4.302238
    33  H    8.171598   7.259298   5.784626  12.850305  14.931916
    34  H    9.881014   8.288156   7.603441  13.594869  15.869780
    35  H    9.729991   7.497765   7.756862  12.282822  14.677571
    36  H    7.832566   5.282148   6.215736   9.858196  12.255410
    37  H    2.077377   4.723565   4.347250   6.519030   7.130309
    38  H    3.637021   5.858962   6.009906   5.996944   6.016523
    39  H    3.660059   6.440511   5.668840   7.623478   7.751207
    40  H    3.993914   6.122873   6.154323   6.271013   6.304499
    41  H    2.630122   5.033561   4.517785   6.783578   7.393132
    42  H    4.571484   2.050412   3.801839   6.904929   9.090023
    43  H    6.221863   3.625871   5.030798   8.164316  10.479772
    44  H    5.118949   2.229660   4.516024   6.342735   8.665091
    45  H    6.204496   3.128879   5.725552   6.274081   8.722136
    46  H    6.644087   3.742917   5.595609   7.712965  10.131050
                   31         32         33         34         35
    31  H    0.000000
    32  H    2.465186   0.000000
    33  H   15.137603  13.361304   0.000000
    34  H   16.417486  14.882167   2.486801   0.000000
    35  H   15.548529  14.313056   4.307781   2.478197   0.000000
    36  H   13.188701  12.075370   5.004360   4.301656   2.464549
    37  H    6.051093   3.751896  10.117711  11.860195  11.664303
    38  H    4.535886   2.146038  11.792026  13.468423  13.127755
    39  H    6.193855   3.813597  11.239290  13.199556  13.260132
    40  H    4.915278   2.839336  11.710676  13.475240  13.281898
    41  H    6.361414   4.205491   9.996211  11.844143  11.817795
    42  H    9.718756   8.488386   6.496610   7.113178   6.045534
    43  H   11.317132  10.201920   5.938719   5.971041   4.523737
    44  H    9.557084   8.574618   6.850996   7.352829   6.217890
    45  H    9.918521   9.210898   7.643908   7.697404   6.067564
    46  H   11.194917  10.288276   6.319161   6.243540   4.735152
                   36         37         38         39         40
    36  H    0.000000
    37  H    9.682304   0.000000
    38  H   11.024304   1.747113   0.000000
    39  H   11.416370   2.511859   2.505175   0.000000
    40  H   11.289938   3.091926   2.536646   1.773196   0.000000
    41  H    9.966866   2.544792   3.089578   1.774006   1.772939
    42  H    3.760061   6.154944   7.397529   8.159932   8.034431
    43  H    2.187451   7.879116   9.146241   9.842600   9.716703
    44  H    4.014282   6.862282   7.896793   8.298433   7.767038
    45  H    3.656329   7.726861   8.648500   9.468230   8.896928
    46  H    2.580264   8.450237   9.564011   9.973365   9.517963
                   41         42         43         44         45
    41  H    0.000000
    42  H    6.894357   0.000000
    43  H    8.520841   1.748926   0.000000
    44  H    6.698716   2.567049   3.091194   0.000000
    45  H    7.994555   2.515269   2.502426   1.775756   0.000000
    46  H    8.383642   3.095614   2.523943   1.766849   1.771910
                   46
    46  H    0.000000
 Stoichiometry    C21H21N2S2(1+)
 Framework group  C1[X(C21H21N2S2)]
 Deg. of freedom   132
 Full point group                 C1      NOp   1
 Largest Abelian subgroup         C1      NOp   1
 Largest concise Abelian subgroup C1      NOp   1
                         Standard orientation:                         
 ---------------------------------------------------------------------
 Center     Atomic      Atomic             Coordinates (Angstroms)
 Number     Number       Type             X           Y           Z
 ---------------------------------------------------------------------
      1          6           0       -1.190596    1.110331   -0.252189
      2          6           0        0.064870    0.503760   -0.173033
      3          6           0        1.260582    1.217343   -0.208079
      4          6           0        2.593409    0.774234   -0.135768
      5          6           0       -2.405553    0.421724   -0.166554
      6         16           0        3.841306    1.976297    0.166664
      7          6           0        5.097780    0.750891    0.121317
      8          6           0        4.536089   -0.513790   -0.112723
      9          7           0        3.138811   -0.466105   -0.274309
     10         16           0       -2.531819   -1.311647    0.122694
     11          6           0       -4.291776   -1.225611    0.094080
     12          6           0       -4.715385    0.094122   -0.124481
     13          7           0       -3.641255    0.984057   -0.286366
     14          6           0       -5.201523   -2.265649    0.263870
     15          6           0       -6.561760   -1.962032    0.216853
     16          6           0       -6.991709   -0.645573    0.007496
     17          6           0       -6.080522    0.395050   -0.163592
     18          6           0        6.471523    0.918380    0.285754
     19          6           0        7.283576   -0.211752    0.216100
     20          6           0        6.727917   -1.477851   -0.012279
     21          6           0        5.354826   -1.646137   -0.177900
     22          6           0       -3.850229    2.422307   -0.537556
     23          6           0       -3.915324    3.247707    0.748408
     24          6           0        2.387430   -1.669626   -0.672612
     25          6           0        1.949065   -2.529762    0.514361
     26          1           0       -1.227500    2.187288   -0.376631
     27          1           0        0.090270   -0.573680   -0.043613
     28          1           0        1.168040    2.300675   -0.240512
     29          1           0       -4.862303   -3.282980    0.430142
     30          1           0       -7.291194   -2.754718    0.347750
     31          1           0       -8.054100   -0.425549   -0.020208
     32          1           0       -6.433788    1.408926   -0.314200
     33          1           0        6.895789    1.901277    0.463243
     34          1           0        8.356297   -0.107851    0.342819
     35          1           0        7.375100   -2.347799   -0.058857
     36          1           0        4.944088   -2.635527   -0.344154
     37          1           0       -3.047769    2.763855   -1.194976
     38          1           0       -4.774587    2.511597   -1.112102
     39          1           0       -4.084401    4.300381    0.500287
     40          1           0       -4.734096    2.912449    1.392344
     41          1           0       -2.982303    3.174455    1.315619
     42          1           0        1.539890   -1.338611   -1.275552
     43          1           0        3.038535   -2.237722   -1.341933
     44          1           0        1.296953   -1.977933    1.198713
     45          1           0        1.404286   -3.406679    0.149679
     46          1           0        2.811973   -2.880307    1.088302
 ---------------------------------------------------------------------
 Rotational constants (GHZ):      0.5421225      0.0707851      0.0632787
 Standard basis: 6-311+G(2d,p) (5D, 7F)
 There are   817 symmetry adapted basis functions of A   symmetry.
 Integral buffers will be    262144 words long.
 Raffenetti 2 integral format.
 Two-electron integral symmetry is turned on.
   817 basis functions,  1246 primitive gaussians,   867 cartesian basis functions
    96 alpha electrons       96 beta electrons
       nuclear repulsion energy      2277.5148829437 Hartrees.
 NAtoms=   46 NActive=   46 NUniq=   46 SFac= 7.50D-01 NAtFMM=   80 NAOKFM=F Big=F
 ------------------------------------------------------------------------------
 Polarizable Continuum Model (PCM)
 =================================
 Model                : PCM.
 Atomic radii         : SMD-Coulomb.
 Polarization charges : Total charges.
 Charge compensation  : None.
 Solution method      : Matrix inversion.
 Cavity type          : VdW (van der Waals Surface) (Alpha=1.000).
 Cavity algorithm     : GePol (No added spheres)
                        Default sphere list used, NSphG=   46.
                        Lebedev-Laikov grids with approx.  5.0 points / Ang**2.
                        Smoothing algorithm: Karplus/York (Gamma=1.0000).
                        Polarization charges: spherical gaussians, with
                                              point-specific exponents (IZeta= 3).
                        Self-potential: point-specific (ISelfS= 7).
                        Self-field    : sphere-specific E.n sum rule (ISelfD= 2).
 1st derivatives      : Analytical E(r).r(x)/FMM algorithm (CHGder, D1EAlg=3).
                        Cavity 1st derivative terms included.
 Solvent              : Ethanol, Eps=  24.852000 Eps(inf)=   1.852593
 ------------------------------------------------------------------------------
 ------------------------------------------------------------------------------
 Atomic radii for non-electrostatic terms: SMD-CDS.
 ------------------------------------------------------------------------------
 Nuclear repulsion after PCM non-electrostatic terms =     2277.5086314833 Hartrees.
 One-electron integrals computed using PRISM.
 NBasis=   817 RedAO= T  NBF=   817
 NBsUse=   811 1.00D-06 NBFU=   811
 Harris functional with IExCor=  402 diagonalized for initial guess.
 ExpMin= 4.05D-02 ExpMax= 9.34D+04 ExpMxC= 3.17D+03 IAcc=2 IRadAn=         0 AccDes= 0.00D+00
 HarFok:  IExCor=  402 AccDes= 0.00D+00 IRadAn=         0 IDoV= 1
 ScaDFX=  1.000000  1.000000  1.000000  1.000000
 FoFCou: FMM=F IPFlag=           0 FMFlag=      100000 FMFlg1=           0
         NFxFlg=           0 DoJE=T BraDBF=F KetDBF=T FulRan=T
         Omega=  0.000000  0.000000  1.000000  0.000000  0.000000 ICntrl=     500 IOpCl=  0
         NMat0=    1 NMatS0=    1 NMatT0=    0 NMatD0=    1 NMtDS0=    0 NMtDT0=    0
         I1Cent=           4 NGrid=           0.
 Petite list used in FoFCou.
 Initial guess orbital symmetries:
       Occupied  (A) (A) (A) (A) (A) (A) (A) (A) (A) (A) (A) (A)
                 (A) (A) (A) (A) (A) (A) (A) (A) (A) (A) (A) (A)
                 (A) (A) (A) (A) (A) (A) (A) (A) (A) (A) (A) (A)
                 (A) (A) (A) (A) (A) (A) (A) (A) (A) (A) (A) (A)
                 (A) (A) (A) (A) (A) (A) (A) (A) (A) (A) (A) (A)
                 (A) (A) (A) (A) (A) (A) (A) (A) (A) (A) (A) (A)
                 (A) (A) (A) (A) (A) (A) (A) (A) (A) (A) (A) (A)
                 (A) (A) (A) (A) (A) (A) (A) (A) (A) (A) (A) (A)
       Virtual   (A) (A) (A) (A) (A) (A) (A) (A) (A) (A) (A) (A)
                 (A) (A) (A) (A) (A) (A) (A) (A) (A) (A) (A) (A)
                 (A) (A) (A) (A) (A) (A) (A) (A) (A) (A) (A) (A)
                 (A) (A) (A) (A) (A) (A) (A) (A) (A) (A) (A) (A)
                 (A) (A) (A) (A) (A) (A) (A) (A) (A) (A) (A) (A)
                 (A) (A) (A) (A) (A) (A) (A) (A) (A) (A) (A) (A)
                 (A) (A) (A) (A) (A) (A) (A) (A) (A) (A) (A) (A)
                 (A) (A) (A) (A) (A) (A) (A) (A) (A) (A) (A) (A)
                 (A) (A) (A) (A) (A) (A) (A) (A) (A) (A) (A) (A)
                 (A) (A) (A) (A) (A) (A) (A) (A) (A) (A) (A) (A)
                 (A) (A) (A) (A) (A) (A) (A) (A) (A) (A) (A) (A)
                 (A) (A) (A) (A) (A) (A) (A) (A) (A) (A) (A) (A)
                 (A) (A) (A) (A) (A) (A) (A) (A) (A) (A) (A) (A)
                 (A) (A) (A) (A) (A) (A) (A) (A) (A) (A) (A) (A)
                 (A) (A) (A) (A) (A) (A) (A) (A) (A) (A) (A) (A)
                 (A) (A) (A) (A) (A) (A) (A) (A) (A) (A) (A) (A)
                 (A) (A) (A) (A) (A) (A) (A) (A) (A) (A) (A) (A)
                 (A) (A) (A) (A) (A) (A) (A) (A) (A) (A) (A) (A)
                 (A) (A) (A) (A) (A) (A) (A) (A) (A) (A) (A) (A)
                 (A) (A) (A) (A) (A) (A) (A) (A) (A) (A) (A) (A)
                 (A) (A) (A) (A) (A) (A) (A) (A) (A) (A) (A) (A)
                 (A) (A) (A) (A) (A) (A) (A) (A) (A) (A) (A) (A)
                 (A) (A) (A) (A) (A) (A) (A) (A) (A) (A) (A) (A)
                 (A) (A) (A) (A) (A) (A) (A) (A) (A) (A) (A) (A)
                 (A) (A) (A) (A) (A) (A) (A) (A) (A) (A) (A) (A)
                 (A) (A) (A) (A) (A) (A) (A) (A) (A) (A) (A) (A)
                 (A) (A) (A) (A) (A) (A) (A) (A) (A) (A) (A) (A)
                 (A) (A) (A) (A) (A) (A) (A) (A) (A) (A) (A) (A)
                 (A) (A) (A) (A) (A) (A) (A) (A) (A) (A) (A) (A)
                 (A) (A) (A) (A) (A) (A) (A) (A) (A) (A) (A) (A)
                 (A) (A) (A) (A) (A) (A) (A) (A) (A) (A) (A) (A)
                 (A) (A) (A) (A) (A) (A) (A) (A) (A) (A) (A) (A)
                 (A) (A) (A) (A) (A) (A) (A) (A) (A) (A) (A) (A)
                 (A) (A) (A) (A) (A) (A) (A) (A) (A) (A) (A) (A)
                 (A) (A) (A) (A) (A) (A) (A) (A) (A) (A) (A) (A)
                 (A) (A) (A) (A) (A) (A) (A) (A) (A) (A) (A) (A)
                 (A) (A) (A) (A) (A) (A) (A) (A) (A) (A) (A) (A)
                 (A) (A) (A) (A) (A) (A) (A) (A) (A) (A) (A) (A)
                 (A) (A) (A) (A) (A) (A) (A) (A) (A) (A) (A) (A)
                 (A) (A) (A) (A) (A) (A) (A) (A) (A) (A) (A) (A)
                 (A) (A) (A) (A) (A) (A) (A) (A) (A) (A) (A) (A)
                 (A) (A) (A) (A) (A) (A) (A) (A) (A) (A) (A) (A)
                 (A) (A) (A) (A) (A) (A) (A) (A) (A) (A) (A) (A)
                 (A) (A) (A) (A) (A) (A) (A) (A) (A) (A) (A) (A)
                 (A) (A) (A) (A) (A) (A) (A) (A) (A) (A) (A) (A)
                 (A) (A) (A) (A) (A) (A) (A) (A) (A) (A) (A) (A)
                 (A) (A) (A) (A) (A) (A) (A) (A) (A) (A) (A) (A)
                 (A) (A) (A) (A) (A) (A) (A) (A) (A) (A) (A) (A)
                 (A) (A) (A) (A) (A) (A) (A) (A) (A) (A) (A) (A)
                 (A) (A) (A) (A) (A) (A) (A) (A) (A) (A) (A) (A)
                 (A) (A) (A) (A) (A) (A) (A) (A) (A) (A) (A) (A)
                 (A) (A) (A) (A) (A) (A) (A) (A) (A) (A) (A) (A)
                 (A) (A) (A) (A) (A) (A) (A) (A) (A) (A) (A) (A)
                 (A) (A) (A) (A) (A) (A) (A) (A) (A) (A) (A) (A)
                 (A) (A) (A) (A) (A) (A) (A) (A) (A) (A) (A) (A)
                 (A) (A) (A) (A) (A) (A) (A) (A) (A) (A) (A) (A)
                 (A) (A) (A) (A) (A) (A) (A) (A) (A) (A) (A) (A)
                 (A) (A) (A) (A) (A) (A) (A) (A) (A) (A) (A) (A)
                 (A) (A) (A) (A) (A) (A) (A) (A) (A) (A) (A) (A)
                 (A) (A) (A) (A) (A) (A) (A)
 The electronic state of the initial guess is 1-A.
 Requested convergence on RMS density matrix=1.00D-08 within 128 cycles.
 Requested convergence on MAX density matrix=1.00D-06.
 Requested convergence on             energy=1.00D-06.
 No special actions if energy rises.
 Error on total polarization charges =  0.06241
 SCF Done:  E(RB3LYP) =  -1718.96112185     A.U. after   14 cycles
             Convg  =    0.7233D-08             -V/T =  2.0033
 SMD-CDS (non-electrostatic) energy             (kcal/mol) =      -3.92
 (included in total energy above)

 **********************************************************************

            Population analysis using the SCF density.

 **********************************************************************

 Orbital symmetries:
       Occupied  (A) (A) (A) (A) (A) (A) (A) (A) (A) (A) (A) (A)
                 (A) (A) (A) (A) (A) (A) (A) (A) (A) (A) (A) (A)
                 (A) (A) (A) (A) (A) (A) (A) (A) (A) (A) (A) (A)
                 (A) (A) (A) (A) (A) (A) (A) (A) (A) (A) (A) (A)
                 (A) (A) (A) (A) (A) (A) (A) (A) (A) (A) (A) (A)
                 (A) (A) (A) (A) (A) (A) (A) (A) (A) (A) (A) (A)
                 (A) (A) (A) (A) (A) (A) (A) (A) (A) (A) (A) (A)
                 (A) (A) (A) (A) (A) (A) (A) (A) (A) (A) (A) (A)
       Virtual   (A) (A) (A) (A) (A) (A) (A) (A) (A) (A) (A) (A)
                 (A) (A) (A) (A) (A) (A) (A) (A) (A) (A) (A) (A)
                 (A) (A) (A) (A) (A) (A) (A) (A) (A) (A) (A) (A)
                 (A) (A) (A) (A) (A) (A) (A) (A) (A) (A) (A) (A)
                 (A) (A) (A) (A) (A) (A) (A) (A) (A) (A) (A) (A)
                 (A) (A) (A) (A) (A) (A) (A) (A) (A) (A) (A) (A)
                 (A) (A) (A) (A) (A) (A) (A) (A) (A) (A) (A) (A)
                 (A) (A) (A) (A) (A) (A) (A) (A) (A) (A) (A) (A)
                 (A) (A) (A) (A) (A) (A) (A) (A) (A) (A) (A) (A)
                 (A) (A) (A) (A) (A) (A) (A) (A) (A) (A) (A) (A)
                 (A) (A) (A) (A) (A) (A) (A) (A) (A) (A) (A) (A)
                 (A) (A) (A) (A) (A) (A) (A) (A) (A) (A) (A) (A)
                 (A) (A) (A) (A) (A) (A) (A) (A) (A) (A) (A) (A)
                 (A) (A) (A) (A) (A) (A) (A) (A) (A) (A) (A) (A)
                 (A) (A) (A) (A) (A) (A) (A) (A) (A) (A) (A) (A)
                 (A) (A) (A) (A) (A) (A) (A) (A) (A) (A) (A) (A)
                 (A) (A) (A) (A) (A) (A) (A) (A) (A) (A) (A) (A)
                 (A) (A) (A) (A) (A) (A) (A) (A) (A) (A) (A) (A)
                 (A) (A) (A) (A) (A) (A) (A) (A) (A) (A) (A) (A)
                 (A) (A) (A) (A) (A) (A) (A) (A) (A) (A) (A) (A)
                 (A) (A) (A) (A) (A) (A) (A) (A) (A) (A) (A) (A)
                 (A) (A) (A) (A) (A) (A) (A) (A) (A) (A) (A) (A)
                 (A) (A) (A) (A) (A) (A) (A) (A) (A) (A) (A) (A)
                 (A) (A) (A) (A) (A) (A) (A) (A) (A) (A) (A) (A)
                 (A) (A) (A) (A) (A) (A) (A) (A) (A) (A) (A) (A)
                 (A) (A) (A) (A) (A) (A) (A) (A) (A) (A) (A) (A)
                 (A) (A) (A) (A) (A) (A) (A) (A) (A) (A) (A) (A)
                 (A) (A) (A) (A) (A) (A) (A) (A) (A) (A) (A) (A)
                 (A) (A) (A) (A) (A) (A) (A) (A) (A) (A) (A) (A)
                 (A) (A) (A) (A) (A) (A) (A) (A) (A) (A) (A) (A)
                 (A) (A) (A) (A) (A) (A) (A) (A) (A) (A) (A) (A)
                 (A) (A) (A) (A) (A) (A) (A) (A) (A) (A) (A) (A)
                 (A) (A) (A) (A) (A) (A) (A) (A) (A) (A) (A) (A)
                 (A) (A) (A) (A) (A) (A) (A) (A) (A) (A) (A) (A)
                 (A) (A) (A) (A) (A) (A) (A) (A) (A) (A) (A) (A)
                 (A) (A) (A) (A) (A) (A) (A) (A) (A) (A) (A) (A)
                 (A) (A) (A) (A) (A) (A) (A) (A) (A) (A) (A) (A)
                 (A) (A) (A) (A) (A) (A) (A) (A) (A) (A) (A) (A)
                 (A) (A) (A) (A) (A) (A) (A) (A) (A) (A) (A) (A)
                 (A) (A) (A) (A) (A) (A) (A) (A) (A) (A) (A) (A)
                 (A) (A) (A) (A) (A) (A) (A) (A) (A) (A) (A) (A)
                 (A) (A) (A) (A) (A) (A) (A) (A) (A) (A) (A) (A)
                 (A) (A) (A) (A) (A) (A) (A) (A) (A) (A) (A) (A)
                 (A) (A) (A) (A) (A) (A) (A) (A) (A) (A) (A) (A)
                 (A) (A) (A) (A) (A) (A) (A) (A) (A) (A) (A) (A)
                 (A) (A) (A) (A) (A) (A) (A) (A) (A) (A) (A) (A)
                 (A) (A) (A) (A) (A) (A) (A) (A) (A) (A) (A) (A)
                 (A) (A) (A) (A) (A) (A) (A) (A) (A) (A) (A) (A)
                 (A) (A) (A) (A) (A) (A) (A) (A) (A) (A) (A) (A)
                 (A) (A) (A) (A) (A) (A) (A) (A) (A) (A) (A) (A)
                 (A) (A) (A) (A) (A) (A) (A) (A) (A) (A) (A) (A)
                 (A) (A) (A) (A) (A) (A) (A) (A) (A) (A) (A) (A)
                 (A) (A) (A) (A) (A) (A) (A) (A) (A) (A) (A) (A)
                 (A) (A) (A) (A) (A) (A) (A) (A) (A) (A) (A) (A)
                 (A) (A) (A) (A) (A) (A) (A) (A) (A) (A) (A) (A)
                 (A) (A) (A) (A) (A) (A) (A) (A) (A) (A) (A) (A)
                 (A) (A) (A) (A) (A) (A) (A) (A) (A) (A) (A) (A)
                 (A) (A) (A) (A) (A) (A) (A) (A) (A) (A) (A) (A)
                 (A) (A) (A) (A) (A) (A) (A) (A) (A) (A) (A) (A)
                 (A) (A) (A) (A) (A) (A) (A)
 The electronic state is 1-A.
 Alpha  occ. eigenvalues --  -88.90429 -88.90232 -14.40337 -14.39969 -10.28754
 Alpha  occ. eigenvalues --  -10.28339 -10.24391 -10.24268 -10.23066 -10.22987
 Alpha  occ. eigenvalues --  -10.22391 -10.22178 -10.21299 -10.19656 -10.19588
 Alpha  occ. eigenvalues --  -10.19439 -10.19328 -10.19246 -10.18899 -10.18832
 Alpha  occ. eigenvalues --  -10.18801 -10.18714 -10.18609 -10.16872 -10.16704
 Alpha  occ. eigenvalues --   -7.98969  -7.98771  -5.95303  -5.95114  -5.94938
 Alpha  occ. eigenvalues --   -5.94748  -5.94484  -5.94271  -1.02364  -1.02188
 Alpha  occ. eigenvalues --   -0.88307  -0.88192  -0.85797  -0.84941  -0.82479
 Alpha  occ. eigenvalues --   -0.79364  -0.77911  -0.77631  -0.76190  -0.75370
 Alpha  occ. eigenvalues --   -0.74743  -0.71502  -0.66842  -0.66363  -0.66156
 Alpha  occ. eigenvalues --   -0.64002  -0.62702  -0.61723  -0.60576  -0.57962
 Alpha  occ. eigenvalues --   -0.57357  -0.53874  -0.53245  -0.53142  -0.51144
 Alpha  occ. eigenvalues --   -0.50334  -0.48401  -0.47897  -0.47847  -0.47089
 Alpha  occ. eigenvalues --   -0.46758  -0.46568  -0.46067  -0.45593  -0.44358
 Alpha  occ. eigenvalues --   -0.43970  -0.42782  -0.42021  -0.41157  -0.40943
 Alpha  occ. eigenvalues --   -0.40237  -0.39917  -0.39079  -0.38789  -0.38030
 Alpha  occ. eigenvalues --   -0.37973  -0.37630  -0.37211  -0.36899  -0.36393
 Alpha  occ. eigenvalues --   -0.35959  -0.35910  -0.35776  -0.33081  -0.32392
 Alpha  occ. eigenvalues --   -0.32239  -0.28850  -0.25926  -0.25862  -0.25743
 Alpha  occ. eigenvalues --   -0.20067
 Alpha virt. eigenvalues --   -0.09824  -0.03424  -0.03393  -0.02839  -0.02383
 Alpha virt. eigenvalues --   -0.01800  -0.01737  -0.00288  -0.00251   0.00543
 Alpha virt. eigenvalues --    0.01151   0.01549   0.01917   0.02142   0.02548
 Alpha virt. eigenvalues --    0.02670   0.03121   0.03475   0.03624   0.04067
 Alpha virt. eigenvalues --    0.04207   0.04869   0.05106   0.05477   0.05656
 Alpha virt. eigenvalues --    0.05859   0.06269   0.06650   0.06978   0.07317
 Alpha virt. eigenvalues --    0.07575   0.07608   0.07777   0.08174   0.08466
 Alpha virt. eigenvalues --    0.08547   0.09143   0.09416   0.09610   0.09761
 Alpha virt. eigenvalues --    0.10054   0.10387   0.10606   0.10857   0.11165
 Alpha virt. eigenvalues --    0.11535   0.11560   0.11980   0.12208   0.12227
 Alpha virt. eigenvalues --    0.12891   0.13212   0.13389   0.13529   0.13732
 Alpha virt. eigenvalues --    0.14047   0.14301   0.14510   0.14767   0.14833
 Alpha virt. eigenvalues --    0.15388   0.15534   0.15906   0.16109   0.16260
 Alpha virt. eigenvalues --    0.16588   0.16810   0.16925   0.17270   0.17322
 Alpha virt. eigenvalues --    0.17483   0.17857   0.18047   0.18222   0.18328
 Alpha virt. eigenvalues --    0.18674   0.19083   0.19233   0.19384   0.19460
 Alpha virt. eigenvalues --    0.19733   0.20001   0.20375   0.20555   0.20952
 Alpha virt. eigenvalues --    0.21334   0.21521   0.21782   0.21796   0.22019
 Alpha virt. eigenvalues --    0.22204   0.22316   0.22554   0.22974   0.23170
 Alpha virt. eigenvalues --    0.23223   0.23476   0.23653   0.23972   0.24198
 Alpha virt. eigenvalues --    0.24350   0.24455   0.24701   0.24935   0.25071
 Alpha virt. eigenvalues --    0.25614   0.25832   0.25990   0.26305   0.26711
 Alpha virt. eigenvalues --    0.26948   0.27273   0.27432   0.27684   0.28117
 Alpha virt. eigenvalues --    0.28647   0.28887   0.28962   0.29312   0.29480
 Alpha virt. eigenvalues --    0.29889   0.29998   0.30277   0.30418   0.31140
 Alpha virt. eigenvalues --    0.31270   0.31517   0.31659   0.31978   0.32446
 Alpha virt. eigenvalues --    0.32819   0.33265   0.33563   0.33985   0.34184
 Alpha virt. eigenvalues --    0.34611   0.34775   0.34881   0.35544   0.36056
 Alpha virt. eigenvalues --    0.36728   0.37366   0.37724   0.38612   0.39559
 Alpha virt. eigenvalues --    0.39914   0.40149   0.40337   0.40476   0.40873
 Alpha virt. eigenvalues --    0.41421   0.42157   0.42997   0.43738   0.43865
 Alpha virt. eigenvalues --    0.44364   0.44700   0.45121   0.46100   0.46799
 Alpha virt. eigenvalues --    0.47854   0.47995   0.49090   0.49498   0.50081
 Alpha virt. eigenvalues --    0.50214   0.50291   0.50586   0.51043   0.51556
 Alpha virt. eigenvalues --    0.51618   0.51886   0.52052   0.52687   0.53008
 Alpha virt. eigenvalues --    0.53343   0.53647   0.53910   0.54448   0.54627
 Alpha virt. eigenvalues --    0.55047   0.55292   0.55821   0.56217   0.56269
 Alpha virt. eigenvalues --    0.56349   0.56960   0.57480   0.57768   0.57999
 Alpha virt. eigenvalues --    0.58422   0.59047   0.59253   0.59751   0.60362
 Alpha virt. eigenvalues --    0.60680   0.61150   0.61379   0.62003   0.62775
 Alpha virt. eigenvalues --    0.63137   0.63455   0.63532   0.63685   0.64361
 Alpha virt. eigenvalues --    0.64541   0.64828   0.65201   0.65353   0.65597
 Alpha virt. eigenvalues --    0.66013   0.66376   0.66599   0.67079   0.67116
 Alpha virt. eigenvalues --    0.67831   0.68100   0.68271   0.68755   0.68922
 Alpha virt. eigenvalues --    0.69300   0.69723   0.69961   0.70602   0.71042
 Alpha virt. eigenvalues --    0.71390   0.71542   0.71706   0.72335   0.72495
 Alpha virt. eigenvalues --    0.72680   0.73005   0.73322   0.73813   0.74353
 Alpha virt. eigenvalues --    0.74980   0.75272   0.75661   0.75854   0.76646
 Alpha virt. eigenvalues --    0.76861   0.77540   0.77731   0.77820   0.78171
 Alpha virt. eigenvalues --    0.78926   0.79009   0.79276   0.80029   0.80154
 Alpha virt. eigenvalues --    0.80431   0.80777   0.80827   0.81335   0.81352
 Alpha virt. eigenvalues --    0.81937   0.82507   0.82753   0.83528   0.83888
 Alpha virt. eigenvalues --    0.84247   0.84733   0.85185   0.85280   0.85772
 Alpha virt. eigenvalues --    0.86143   0.86629   0.87194   0.87763   0.88045
 Alpha virt. eigenvalues --    0.88370   0.89429   0.90156   0.90536   0.91336
 Alpha virt. eigenvalues --    0.91807   0.92151   0.92530   0.93153   0.93494
 Alpha virt. eigenvalues --    0.94344   0.95516   0.96361   0.96910   0.97427
 Alpha virt. eigenvalues --    0.98124   0.98894   0.99233   1.00312   1.00554
 Alpha virt. eigenvalues --    1.01351   1.02041   1.03045   1.03558   1.03661
 Alpha virt. eigenvalues --    1.04685   1.05202   1.06679   1.08091   1.08167
 Alpha virt. eigenvalues --    1.08438   1.10357   1.11146   1.11477   1.12772
 Alpha virt. eigenvalues --    1.13229   1.13860   1.14596   1.15307   1.16225
 Alpha virt. eigenvalues --    1.16859   1.17135   1.17349   1.17757   1.18413
 Alpha virt. eigenvalues --    1.19111   1.19327   1.20843   1.21291   1.21510
 Alpha virt. eigenvalues --    1.22451   1.22999   1.23012   1.23986   1.24864
 Alpha virt. eigenvalues --    1.25290   1.26292   1.26803   1.28115   1.28492
 Alpha virt. eigenvalues --    1.28986   1.30131   1.30264   1.30687   1.31956
 Alpha virt. eigenvalues --    1.32224   1.33188   1.33568   1.33748   1.34080
 Alpha virt. eigenvalues --    1.34210   1.34758   1.35340   1.36337   1.36642
 Alpha virt. eigenvalues --    1.38619   1.38877   1.39557   1.40573   1.40918
 Alpha virt. eigenvalues --    1.41439   1.42392   1.42906   1.45639   1.45919
 Alpha virt. eigenvalues --    1.46722   1.48419   1.48636   1.49293   1.49671
 Alpha virt. eigenvalues --    1.51307   1.51812   1.52324   1.53569   1.54326
 Alpha virt. eigenvalues --    1.54829   1.56537   1.56671   1.57176   1.57337
 Alpha virt. eigenvalues --    1.58655   1.59551   1.60400   1.60800   1.61312
 Alpha virt. eigenvalues --    1.61781   1.62175   1.63501   1.63738   1.65366
 Alpha virt. eigenvalues --    1.66777   1.69003   1.69369   1.69661   1.69919
 Alpha virt. eigenvalues --    1.70267   1.72274   1.73497   1.74130   1.75002
 Alpha virt. eigenvalues --    1.75842   1.75901   1.77908   1.79437   1.80300
 Alpha virt. eigenvalues --    1.81030   1.81967   1.82662   1.84024   1.85599
 Alpha virt. eigenvalues --    1.85717   1.85930   1.86584   1.87805   1.89326
 Alpha virt. eigenvalues --    1.90794   1.92119   1.93351   1.94179   1.94745
 Alpha virt. eigenvalues --    1.96596   1.97734   1.98138   1.99005   2.01196
 Alpha virt. eigenvalues --    2.02522   2.04283   2.05868   2.06611   2.09014
 Alpha virt. eigenvalues --    2.11425   2.14604   2.14746   2.14896   2.15991
 Alpha virt. eigenvalues --    2.17309   2.18323   2.18994   2.19859   2.21691
 Alpha virt. eigenvalues --    2.22585   2.23340   2.23887   2.24539   2.25565
 Alpha virt. eigenvalues --    2.26232   2.26553   2.26904   2.27307   2.28198
 Alpha virt. eigenvalues --    2.30218   2.30569   2.33482   2.35289   2.36127
 Alpha virt. eigenvalues --    2.36369   2.38111   2.38372   2.39038   2.39641
 Alpha virt. eigenvalues --    2.40285   2.41166   2.43064   2.43381   2.46285
 Alpha virt. eigenvalues --    2.47277   2.47921   2.49591   2.50040   2.53228
 Alpha virt. eigenvalues --    2.54616   2.55894   2.59503   2.60328   2.61319
 Alpha virt. eigenvalues --    2.62409   2.62719   2.62851   2.64836   2.65939
 Alpha virt. eigenvalues --    2.66312   2.66842   2.67154   2.68797   2.69075
 Alpha virt. eigenvalues --    2.70650   2.71246   2.72134   2.73275   2.74175
 Alpha virt. eigenvalues --    2.74729   2.76046   2.76127   2.76405   2.76625
 Alpha virt. eigenvalues --    2.77913   2.79004   2.79352   2.80040   2.80643
 Alpha virt. eigenvalues --    2.80719   2.81459   2.81805   2.82759   2.83020
 Alpha virt. eigenvalues --    2.83717   2.83964   2.84358   2.85044   2.86652
 Alpha virt. eigenvalues --    2.87548   2.87928   2.89074   2.90758   2.91478
 Alpha virt. eigenvalues --    2.92507   2.93154   2.95343   2.97234   2.98660
 Alpha virt. eigenvalues --    2.98876   3.03386   3.03578   3.05713   3.08158
 Alpha virt. eigenvalues --    3.09750   3.09796   3.09966   3.10675   3.12659
 Alpha virt. eigenvalues --    3.12987   3.13963   3.14283   3.14876   3.15176
 Alpha virt. eigenvalues --    3.18378   3.18971   3.20104   3.20734   3.22087
 Alpha virt. eigenvalues --    3.22511   3.23480   3.24434   3.24690   3.25199
 Alpha virt. eigenvalues --    3.25860   3.26268   3.26876   3.27556   3.28422
 Alpha virt. eigenvalues --    3.28921   3.28996   3.29464   3.29970   3.30487
 Alpha virt. eigenvalues --    3.31227   3.31490   3.31743   3.32583   3.33412
 Alpha virt. eigenvalues --    3.34574   3.35543   3.35992   3.36368   3.37766
 Alpha virt. eigenvalues --    3.38601   3.39627   3.40677   3.40918   3.41532
 Alpha virt. eigenvalues --    3.41924   3.42621   3.43942   3.44076   3.45557
 Alpha virt. eigenvalues --    3.45821   3.46297   3.46679   3.47317   3.48549
 Alpha virt. eigenvalues --    3.49641   3.50494   3.51232   3.51406   3.52026
 Alpha virt. eigenvalues --    3.53719   3.54054   3.54805   3.55547   3.56166
 Alpha virt. eigenvalues --    3.56927   3.57137   3.57625   3.57797   3.58174
 Alpha virt. eigenvalues --    3.58290   3.58948   3.59658   3.60325   3.60409
 Alpha virt. eigenvalues --    3.61059   3.61768   3.62268   3.62409   3.63568
 Alpha virt. eigenvalues --    3.64217   3.65305   3.65617   3.66094   3.67098
 Alpha virt. eigenvalues --    3.68087   3.68192   3.69105   3.70390   3.70915
 Alpha virt. eigenvalues --    3.71423   3.72791   3.74150   3.75550   3.75765
 Alpha virt. eigenvalues --    3.76542   3.76916   3.77251   3.78551   3.79777
 Alpha virt. eigenvalues --    3.80181   3.81960   3.82782   3.84371   3.86116
 Alpha virt. eigenvalues --    3.87598   3.88779   3.89398   3.90806   3.92074
 Alpha virt. eigenvalues --    3.92485   3.92987   3.93527   3.93946   3.94794
 Alpha virt. eigenvalues --    3.98091   4.00016   4.01956   4.03367   4.03771
 Alpha virt. eigenvalues --    4.05562   4.06756   4.08240   4.09718   4.11247
 Alpha virt. eigenvalues --    4.12809   4.15961   4.19996   4.21794   4.22906
 Alpha virt. eigenvalues --    4.23378   4.25019   4.25506   4.26784   4.27130
 Alpha virt. eigenvalues --    4.36391   4.37025   4.44647   4.44910   4.45174
 Alpha virt. eigenvalues --    4.45868   4.48548   4.54187   4.60563   4.60799
 Alpha virt. eigenvalues --    4.63602   4.73790   4.74422   4.78336   4.78559
 Alpha virt. eigenvalues --    4.94388   5.04393   5.07465   5.11426   5.12283
 Alpha virt. eigenvalues --    5.18976   5.20564   5.23929   5.24725   5.30156
 Alpha virt. eigenvalues --    5.32605   5.43319   5.50081   5.60139   5.63253
 Alpha virt. eigenvalues --    5.84055   5.87508   8.22831   8.26099  17.30253
 Alpha virt. eigenvalues --   17.30678  17.73484  17.75607  17.80748  17.81718
 Alpha virt. eigenvalues --   23.63393  23.64355  23.87949  23.91656  23.96609
 Alpha virt. eigenvalues --   23.96990  23.99378  23.99585  23.99922  24.00369
 Alpha virt. eigenvalues --   24.01252  24.02650  24.04523  24.05801  24.08953
 Alpha virt. eigenvalues --   24.10018  24.11104  24.13684  24.14896  24.18130
 Alpha virt. eigenvalues --   24.18902  35.68873  35.69801 189.40869 189.44099
          Condensed to atoms (all electrons):
              1          2          3          4          5          6
     1  C    7.483699   0.848762  -2.060844  -0.535574   0.319029   0.020884
     2  C    0.848762   7.895067  -0.357719  -1.125769  -0.700417  -0.140759
     3  C   -2.060844  -0.357719   7.566039   0.919962  -0.070500  -0.042972
     4  C   -0.535574  -1.125769   0.919962   7.350136   0.071883  -0.546118
     5  C    0.319029  -0.700417  -0.070500   0.071883   7.058407  -0.006970
     6  S    0.020884  -0.140759  -0.042972  -0.546118  -0.006970  17.147982
     7  C   -0.009045  -0.304633   0.010941   0.082679   0.005259  -0.161599
     8  C    0.034164   0.108612  -0.101280   0.025319  -0.010532  -0.042872
     9  N    0.012675  -0.000165  -0.072198   0.267638   0.000647   0.079369
    10  S   -0.214742  -0.232176  -0.043723   0.019763  -0.045594  -0.000374
    11  C   -0.152061  -0.262089  -0.045666  -0.008541   0.083904  -0.000079
    12  C    0.168265   0.050060   0.166415  -0.010261  -0.650955   0.000399
    13  N   -0.160033  -0.056970   0.041325   0.006487   0.295186   0.000193
    14  C    0.226094   0.038910   0.004773  -0.016967  -0.427831  -0.000070
    15  C   -0.033908  -0.012788   0.000536   0.000835   0.008973   0.000004
    16  C    0.065095   0.015829  -0.002885  -0.001295  -0.050570  -0.000012
    17  C   -0.187628   0.084193   0.060141   0.009357  -0.199212   0.000149
    18  C   -0.020471  -0.054498   0.003423  -0.238875   0.000928   0.130092
    19  C   -0.001300  -0.011860  -0.007584  -0.093014   0.000127  -0.030980
    20  C    0.001335   0.001565  -0.001771   0.135517  -0.000523   0.006355
    21  C    0.027567  -0.038082   0.126606  -0.715511  -0.016093   0.083664
    22  C    0.031010  -0.139985  -0.032304  -0.016237  -0.139907   0.000568
    23  C   -0.006058   0.011661  -0.013130   0.003405   0.056982  -0.000277
    24  C   -0.039264  -0.086825   0.013717  -0.062590  -0.000803   0.102289
    25  C   -0.010700   0.055172   0.033863  -0.031446  -0.001906  -0.069361
    26  H    0.453433  -0.034857  -0.061083  -0.012093  -0.021716   0.000337
    27  H   -0.030947   0.391829  -0.050747   0.012587  -0.037714  -0.001366
    28  H    0.079413   0.009203   0.337993  -0.096342  -0.019597  -0.030854
    29  H   -0.000437  -0.000466  -0.000103   0.000030   0.007231   0.000000
    30  H   -0.000053   0.000016   0.000002   0.000000  -0.000560   0.000000
    31  H    0.000030   0.000001  -0.000002   0.000000  -0.001408   0.000000
    32  H   -0.003398  -0.000180   0.000001   0.000005   0.017259   0.000000
    33  H    0.000066  -0.000299   0.000496   0.007503  -0.000002  -0.012790
    34  H    0.000000  -0.000011   0.000092  -0.001502   0.000000  -0.000192
    35  H    0.000000   0.000049  -0.000065  -0.000405   0.000000   0.000235
    36  H   -0.000070  -0.001143   0.000873   0.004942  -0.000002  -0.002171
    37  H    0.010883   0.013032   0.001311   0.002055  -0.003194   0.000037
    38  H    0.005261   0.004600   0.000708   0.000077  -0.002928   0.000000
    39  H   -0.012687  -0.002395  -0.000213   0.000127   0.013562   0.000005
    40  H    0.009744   0.001582   0.000994  -0.000043  -0.021867   0.000002
    41  H    0.017510  -0.000757  -0.003563  -0.000869  -0.012733  -0.000050
    42  H   -0.030860  -0.025898   0.055536   0.046061  -0.013057  -0.002338
    43  H    0.003577   0.024375  -0.009136  -0.013883   0.001329  -0.000774
    44  H    0.006403   0.017553  -0.011880  -0.008498   0.002878  -0.000998
    45  H    0.000231  -0.001715  -0.000300  -0.003476  -0.000930   0.001109
    46  H   -0.001604  -0.007442   0.004476   0.009904  -0.000176  -0.002274
              7          8          9         10         11         12
     1  C   -0.009045   0.034164   0.012675  -0.214742  -0.152061   0.168265
[...]
 0543119,0.00420362,0.00549197,-0.00007096,0.00003405,0.00001479,0.0003
 1204,0.00020005,-0.00016076,0.00007175,0.00002791,0.00009832,0.0000001
 9,0.00000042,0.00000137,-0.00000025,0.00000015,-0.00000025,0.00000084,
 0.00000050,0.00000055,-0.00000137,-0.00000056,0.00000013,0.00002922,-0
 .00000199,0.00003045,0.00000005,0.00001349,-0.00005368,0.00002291,-0.0
 0000372,-0.00001220,-0.00187164,0.00013763,-0.00112538,-0.00000505,-0.
 00000233,0.00000480,0.00000038,-0.00000299,0.00000134,-0.00000062,-0.0
 0000192,-0.00000247,0.00000065,0.00000028,-0.00000005,-0.00000069,-0.0
 0000105,-0.00000141,-0.01362052,0.01227414,0.01471410,0.16428904,0.001
 11381,0.00005331,-0.00003750,-0.00122884,-0.00008728,-0.00019861,0.001
 54143,-0.00012791,0.00001761,-0.00473351,0.00123309,-0.00262408,-0.000
 92572,-0.00046253,0.00007966,-0.00024975,-0.00086595,0.00022382,0.0001
 6202,-0.00060944,0.00000630,0.00222443,-0.00025865,0.00040324,0.013440
 57,-0.02826368,-0.01812856,-0.00007463,0.00020533,-0.00003377,0.000115
 89,0.00004773,-0.00000628,-0.00001013,-0.00005509,0.00000734,0.0004667
 6,-0.00015464,0.00004391,-0.00007469,-0.00006772,0.00001445,0.00011728
 ,-0.00003559,0.00000498,0.00003668,0.00010873,-0.00001432,-0.00006749,
 -0.00000572,-0.00000273,0.00012081,0.00008870,0.00002867,-0.00003707,0
 .00005845,-0.00000876,-0.00003068,0.00014316,0.00003967,0.00026731,0.0
 0051359,0.00010746,-0.00001278,0.00014648,-0.00004155,-0.00000682,-0.0
 0002341,0.00002854,0.08093056,-0.11486181,-0.08038437,-0.01272251,0.01
 075755,0.01284224,0.00002568,-0.00001351,-0.00002924,0.00012824,-0.000
 20868,0.00013460,0.00008217,-0.00002260,0.00016009,-0.00000232,0.00000
 549,-0.00000037,0.00000751,0.00000123,-0.00000167,0.00000816,0.0000031
 0,-0.00000029,0.00000021,-0.00000408,-0.00000065,0.00000833,-0.0000043
 8,-0.00002342,0.00000105,0.00002460,0.00000493,0.00000367,0.00000082,-
 0.00000645,0.00039239,0.00047059,0.00038755,-0.00001255,-0.00000965,0.
 00000453,0.00001302,-0.00001763,0.00000235,0.00000008,-0.00001549,-0.0
 0001543,0.00000306,0.00000173,-0.00000162,0.00000131,-0.00000160,-0.00
 000290,0.00586833,-0.00404758,-0.00477679,-0.08649243,0.13681720,0.000
 53765,0.00015631,0.00002189,-0.00085001,-0.00016136,0.00015690,0.00063
 232,0.00017826,0.00005586,-0.00209503,0.00116499,-0.00087729,-0.000337
 36,-0.00016309,0.00001670,-0.00024260,-0.00013533,0.00016245,0.0001159
 7,-0.00043211,0.00002701,0.00099976,-0.00016875,0.00048794,0.00384806,
 -0.01036748,-0.00526904,-0.00000779,0.00006886,-0.00002295,0.00004576,
 0.00001612,0.00000978,-0.00000634,-0.00001745,-0.00000138,0.00016215,-
 0.00006359,0.00002012,-0.00002868,-0.00002216,0.00000519,0.00004071,-0
 .00001389,0.00000239,0.00001223,0.00003894,-0.00000501,-0.00002473,-0.
 00000236,-0.00000196,0.00002887,0.00015174,0.00002110,0.00007497,-0.00
 006221,-0.00003192,0.00010178,0.00036663,0.00015331,-0.00037876,-0.000
 73314,-0.00025881,-0.00000323,0.00005387,-0.00001716,-0.00000320,-0.00
 000893,0.00000931,0.09430938,-0.08154574,-0.14326336,0.01769596,-0.010
 88597,-0.01706888,-0.00003554,0.00001967,-0.00001297,0.00007784,0.0002
 3942,-0.00016377,0.00004443,0.00000246,0.00008851,-0.00000086,0.000001
 65,-0.00000025,0.00000236,0.00000045,-0.00000143,0.00000281,0.00000096
 ,0.00000005,-0.00000021,-0.00000155,0.,0.00001296,0.00001484,-0.000023
 93,0.00002580,0.00004558,-0.00001026,0.00002907,-0.00001245,0.00002546
 ,-0.00063173,0.00077322,-0.00035564,-0.00000657,-0.00000419,0.00000422
 ,0.00000396,-0.00000637,0.00000198,-0.00000013,-0.00000542,-0.00000489
 ,0.00000049,0.00000095,-0.00000032,0.00000097,-0.00000046,-0.00000166,
 -0.00943032,0.00938079,0.01230547,-0.10502385,0.08962463,0.15421701,0.
 00003513,0.00003069,-0.00000566,-0.00022794,0.00014738,-0.00032585,0.0
 0020295,-0.00003276,0.00001536,-0.00029694,0.00008608,0.00003047,-0.00
 002025,0.00000808,-0.00000548,-0.00000770,-0.00004613,0.00001384,0.000
 04393,0.00007157,0.00001467,-0.00012443,-0.00007713,-0.00011124,0.0004
 4295,0.00064723,-0.00021033,0.00004377,0.00001701,0.00002511,-0.000003
 28,-0.00000615,-0.00000391,0.00000235,-0.00000075,0.00000118,0.0000144
 2,-0.00001091,0.00000209,-0.00000090,-0.00000087,0.00000100,0.00000263
 ,-0.00000174,-0.00000089,0.00000144,0.00000241,0.00000013,-0.00000084,
 -0.00000190,-0.00000155,-0.00005917,-0.00001167,-0.00000615,-0.0000038
 5,-0.00005292,-0.00001998,0.00005834,-0.00000823,0.00002805,0.00000415
 ,0.00004110,0.00004699,0.00000063,0.00000732,0.00000041,0.00000062,-0.
 00000008,0.00000248,-0.00638393,0.00332266,0.00623100,-0.13860517,0.08
 051085,0.09643042,-0.00001295,0.00000805,0.00002538,-0.00066070,0.0010
 2893,-0.00096436,-0.00000016,-0.00000056,0.00002804,-0.00000003,0.0000
 0063,0.00000127,0.00000023,0.00000040,0.00000015,0.00000048,0.00000007
 ,0.00000040,0.00000034,-0.00000011,0.00000049,-0.00000294,-0.00000217,
 0.00000388,-0.00000363,-0.00000500,-0.00000283,-0.00000318,0.00000215,
 0.00000314,0.00007933,-0.00004387,0.00001195,-0.00000075,-0.00000029,0
 .00000050,-0.00000028,-0.00000129,-0.00000019,0.00000004,-0.00000054,-
 0.00000095,0.00000066,-0.00000032,-0.00000038,-0.00000123,-0.00000050,
 -0.00000079,0.00038399,-0.00038917,-0.00032678,0.00048760,-0.00120856,
 0.00131348,0.14757510,-0.00012311,0.00005832,0.00002354,0.00055517,-0.
 00125145,0.00038490,-0.00005556,-0.00017215,0.00010964,0.00026743,-0.0
 0019007,-0.00012890,0.00016242,0.00009106,-0.00001986,0.00007748,0.000
 05764,0.00005150,0.00001674,0.00009028,0.00003622,-0.00022005,0.000038
 39,-0.00017318,0.00060614,0.00236445,-0.00054567,0.00001631,-0.0000641
 8,-0.00001966,-0.00003628,-0.00001443,0.00001939,0.00000996,0.00000725
 ,-0.00000152,-0.00006924,0.00000824,-0.00000292,0.00001365,0.00001163,
 -0.00000047,-0.00001780,0.00000428,-0.00000102,-0.00000278,-0.00001548
 ,0.00000229,0.00000816,-0.00000202,0.00000099,-0.00001285,-0.00001189,
 0.00000408,0.00001399,0.00000776,0.00000213,-0.00001325,-0.00001379,-0
 .00001373,0.00004844,-0.00002436,-0.00000012,0.00000391,-0.00001712,0.
 00000311,0.00000115,0.00000206,-0.00000364,-0.01399930,0.01018606,0.01
 405788,0.08134664,-0.11770244,-0.08617578,-0.00001665,0.00000599,0.000
 00610,0.00088059,-0.00149778,0.00134159,0.00000986,0.00002648,-0.00003
 826,-0.00000076,-0.00000119,-0.00000086,-0.00000071,-0.00000011,-0.000
 00079,-0.00000086,-0.00000061,-0.00000019,0.00000069,0.00000010,0.0000
 0016,0.00000030,0.00000048,0.00000194,0.00000067,-0.00000127,0.0000006
 4,-0.00000250,-0.00000102,0.00000131,0.00002789,-0.00001769,0.00000989
 ,0.00000057,0.00000097,-0.00000009,-0.00000116,0.00000162,-0.00000020,
 0.00000009,0.00000165,0.00000226,-0.00000142,0.00000018,0.00000014,0.0
 0000041,0.00000091,0.00000034,0.00043797,0.00063316,-0.00102599,-0.001
 32153,-0.00175752,0.00345362,-0.08901513,0.12694707,-0.00020631,-0.000
 33976,0.00001732,0.00039777,0.00086980,0.00045351,-0.00041267,-0.00011
 422,-0.00000889,0.00077713,-0.00029096,0.00025065,-0.00002294,0.000017
 85,0.00002613,0.00001111,0.00009772,-0.00006816,0.00000035,0.00000417,
 0.00002409,-0.00010875,0.00008158,0.00010196,-0.00115387,-0.00030282,0
 .00145130,-0.00009567,0.00001459,0.00000207,-0.00004878,-0.00002464,0.
 00000292,0.00001982,-0.00000674,0.00000003,0.00002666,-0.00000280,-0.0
 0000171,0.00001593,-0.00000637,-0.00000060,0.00000266,0.00000587,-0.00
 000150,0.00000594,0.00000197,0.00000004,-0.00000191,-0.00000467,0.0000
 0196,-0.00001267,0.00004601,-0.00000201,-0.00000242,-0.00001588,-0.000
 01156,0.00001881,0.00001789,0.00003474,-0.00008939,-0.00005501,0.00001
 443,-0.00000169,0.00001114,-0.00000118,-0.00000089,-0.00000270,0.00000
 402,0.01518740,-0.01418743,-0.01779835,0.09655788,-0.08312833,-0.14935
 232,0.00009249,-0.00004773,-0.00004781,-0.00136161,0.00143431,-0.00143
 797,-0.00007460,-0.00005312,-0.00004053,-0.00000195,0.00000108,-0.0000
 0067,0.00000265,0.00000041,0.00000085,0.00000155,0.00000020,-0.0000003
 0,0.00000256,-0.00000098,-0.00000119,0.00000551,-0.00000007,-0.0000024
 7,0.00000260,0.00000368,-0.00000410,0.00000634,-0.00000023,0.00000360,
 -0.00000741,0.00005308,-0.00004183,0.00000182,0.00000038,-0.00000444,0
 .00000312,-0.00000211,-0.00000096,0.00000044,-0.00000242,-0.00000224,0
 .00000046,0.00000016,-0.00000045,0.00000112,0.00000039,0.00000048,-0.0
 0029119,-0.00049447,0.00085843,0.00115656,0.00373181,-0.00262420,-0.10
 736980,0.08884809,0.16337337,0.00034881,0.00002388,0.00000858,-0.00046
 012,-0.00009294,-0.00002462,0.00060907,-0.00004675,0.00000651,-0.00108
 191,0.00074735,0.00022852,-0.00027637,-0.00013164,0.00000487,-0.000088
 29,-0.00010740,-0.00010122,0.00000754,-0.00011693,-0.00008764,0.000691
 50,0.00000995,0.00000832,0.00050950,-0.00215018,0.00161370,0.00003182,
 0.00005567,0.00000888,0.00002259,0.00000808,-0.00000814,0.00000611,-0.
 00001610,0.00000216,0.00014141,-0.00005749,0.00001518,-0.00002110,-0.0
 0002375,0.00000331,0.00003818,-0.00001324,0.00000296,0.00001465,0.0000
 3618,-0.00000485,-0.00002359,-0.00000431,0.00000109,0.00001229,-0.0000
 2484,-0.00000103,-0.00003002,0.00000992,-0.00001752,0.00000521,-0.0000
 2123,0.00000682,-0.00001533,0.00019580,0.00003126,-0.00000234,0.000048
 78,-0.00001815,-0.00000142,-0.00000885,0.00001053,-0.00567772,-0.00594
 825,-0.00405699,-0.11554377,-0.10608830,-0.04733266,0.00000431,-0.0000
 0041,0.00000738,-0.00003614,0.00003900,0.00002141,0.00001376,-0.000006
 86,0.00000722,-0.00000087,0.00000219,-0.00000072,0.00000319,0.00000092
 ,-0.00000020,0.00000309,0.00000074,-0.00000031,0.00000082,-0.00000171,
 -0.00000139,-0.00000583,-0.00000359,0.00001219,-0.00000719,-0.00000368
 ,0.00000061,-0.00001349,0.00000316,-0.00000174,-0.00004250,-0.00010653
 ,0.00001664,-0.00000514,-0.00000319,0.00000124,0.00000455,-0.00000564,
 0.00000048,-0.00000004,-0.00000547,-0.00000532,0.00000087,0.00000064,-
 0.00000088,0.00000008,-0.00000045,-0.00000102,0.00047825,0.00004384,0.
 00012688,0.00010164,0.00044962,-0.00026923,0.01113673,0.01525855,0.005
 93064,0.12119859,0.00078839,0.00000632,-0.00002499,-0.00072307,-0.0000
 2754,0.00003328,0.00092673,0.00011260,0.00002911,-0.00158501,0.0015732
 9,0.00020807,-0.00067172,-0.00035790,0.00004795,-0.00022843,-0.0000896
 7,-0.00021088,-0.00011758,-0.00034683,-0.00013265,0.00113754,-0.000535
 45,0.00027269,-0.00178857,-0.00306305,0.00330639,-0.00007086,0.0001238
 4,-0.00003116,0.00010784,0.00005516,0.00000233,-0.00002580,-0.00003937
 ,0.00000479,0.00032271,-0.00009222,0.00003077,-0.00005647,-0.00004650,
 0.00000864,0.00007990,-0.00002335,0.00000385,0.00002060,0.00007302,-0.
 00000907,-0.00004311,0.00000117,-0.00000227,-0.00000025,-0.00002178,-0
 .00003857,-0.00005052,-0.00005597,-0.00000042,0.00007864,0.00008458,-0
 .00001341,-0.00014855,0.00014681,-0.00001705,-0.00000957,0.00009385,-0
 .00003065,-0.00000540,-0.00001590,0.00001790,-0.00799817,-0.01393295,-
 0.00772968,-0.10582148,-0.20709518,-0.07275413,0.00002229,-0.00000708,
 -0.00001469,-0.00009731,-0.00009994,-0.00001370,0.00003268,-0.00001598
 ,0.00003290,-0.00000019,0.00000451,-0.00000164,0.00000434,0.00000071,-
 0.00000128,0.00000501,0.00000215,-0.00000050,-0.00000140,-0.00000233,-
 0.00000146,-0.00001577,-0.00000034,-0.00000595,-0.00000870,0.00000135,
 0.00000672,-0.00001307,0.00000513,-0.00000399,0.00000961,-0.00000057,0
 .00002717,-0.00000929,-0.00000614,0.00000345,0.00000885,-0.00001030,0.
 00000169,-0.00000011,-0.00000983,-0.00000960,0.00000189,0.00000143,-0.
 00000072,0.00000142,-0.00000099,-0.00000181,0.00065637,0.00052091,-0.0
 0048518,-0.00011599,0.00065220,-0.00004876,-0.00780643,-0.01190685,-0.
 00489287,0.11777708,0.22406802,-0.00062850,-0.00006241,0.00001907,0.00
 073820,0.00016309,0.00003670,-0.00089253,-0.00004649,-0.00008041,0.001
 70727,-0.00099804,-0.00024442,0.00048449,0.00022777,-0.00000767,0.0002
 6464,0.00027928,0.00032002,0.00010176,0.00027854,0.00014264,-0.0007708
 2,0.00059648,-0.00016047,0.00245598,0.00583407,-0.00334694,0.00005615,
 -0.00011185,0.00004720,-0.00005103,-0.00001813,-0.00001740,0.00001404,
 0.00003688,-0.00000679,-0.00026748,0.00009560,-0.00003495,0.00003468,0
 .00003013,-0.00000845,-0.00005696,0.00001588,-0.00000141,-0.00001765,-
 0.00005143,0.00000690,0.00002922,0.00000399,0.00000286,0.00001893,0.00
 003818,0.00003155,0.00003535,0.00004902,0.00000285,-0.00005433,-0.0000
 8741,0.00000142,0.00012861,-0.00009150,0.00002187,0.00000320,-0.000082
 99,0.00002030,0.00000354,0.00001254,-0.00001623,0.01228972,0.01864875,
 0.00946546,-0.04901432,-0.07564947,-0.08166599,-0.00000144,-0.00000124
 ,-0.00001821,-0.00003728,-0.00003720,-0.00003819,-0.00003267,0.0000088
 0,0.00000155,0.00000161,-0.00000253,-0.00000003,-0.00000341,-0.0000004
 4,0.00000206,-0.00000433,-0.00000144,0.00000002,-0.00000052,0.00000222
 ,-0.00000102,0.00002049,-0.00000147,-0.00000085,0.00000742,-0.00000335
 ,-0.00000415,0.00001209,-0.00000316,0.00000308,-0.00001278,-0.00004082
 ,-0.00002475,0.00000809,0.00000616,-0.00000315,-0.00000714,0.00001099,
 -0.00000125,-0.00000009,0.00000838,0.00000823,-0.00000123,-0.00000108,
 0.00000101,-0.00000035,0.00000100,0.00000209,-0.00061530,-0.00046578,0
 .00122067,-0.00008069,-0.00083624,0.00102988,-0.01081284,-0.01403821,-
 0.00670165,0.05176705,0.07875511,0.08578918,0.00002828,0.00007034,-0.0
 0001896,-0.00001945,-0.00008508,-0.00002255,-0.00013888,0.00006526,-0.
 00002472,0.00015679,-0.00024395,-0.00015597,0.00001999,-0.00000844,0.0
 0000487,0.00004759,0.00008611,0.00005013,0.00012752,0.00010703,-0.0000
 1573,-0.00005179,-0.00004086,0.00010859,0.00101819,0.00113919,-0.00028
 646,0.00002447,-0.00001897,0.00000539,0.00002249,0.00001270,-0.0000095
 9,-0.00001148,0.00000413,-0.00000038,-0.00001999,0.00001241,-0.0000030
 3,-0.00000405,0.00000398,0.00000078,-0.00000411,-0.00000101,0.00000059
 ,-0.00000433,-0.00000341,0.00000118,0.00000335,0.00000343,-0.00000064,
 -0.00015771,0.00002609,-0.00000294,0.00001306,-0.00014432,-0.00007992,
 0.00012436,0.00001278,0.00012073,-0.00070160,0.00010035,0.00034644,-0.
 00000055,-0.00000987,0.00000028,-0.00000008,0.00000134,-0.00000305,0.0
 0936606,-0.00470186,0.00659991,-0.21358873,0.07242003,-0.10740200,-0.0
 0002234,0.00000853,0.00000124,0.00013474,-0.00009985,0.00012964,0.0000
 1964,0.00000891,0.00001009,0.00000137,-0.00000099,-0.00000123,-0.00000
 154,-0.00000016,0.,-0.00000104,-0.00000011,-0.00000027,-0.00000131,0.0
 0000043,-0.00000085,0.00000096,-0.00000245,0.00001480,-0.00000318,-0.0
 0000765,-0.00001504,-0.00000106,0.00000232,0.00001098,-0.00020888,-0.0
 0019750,-0.00001915,0.00000010,0.00000022,0.00000105,-0.00000126,0.000
 00188,0.00000032,-0.00000026,0.00000143,0.00000119,-0.00000071,0.00000
 002,0.00000065,0.00000050,-0.00000009,0.00000028,0.00019758,-0.0016915
 6,0.00218395,0.00069891,0.00036010,-0.00074357,-0.01409757,0.00514575,
 -0.00896480,-0.01205137,0.00543093,-0.00681881,0.22908733,0.00002067,-
 0.00010675,-0.00001034,0.00001724,0.00029719,0.00017460,-0.00018105,-0
 .00001060,-0.00000384,0.00026461,-0.00030810,-0.00018001,-0.00009021,-
 0.00004435,0.00001880,-0.00005030,0.00001030,0.00002447,-0.00000471,-0
 .00009501,0.00003703,-0.00017497,-0.00027917,0.00027078,0.00118949,0.0
 0158011,-0.00051021,-0.00003011,0.00000926,0.00000608,0.00000448,0.000
 00639,-0.00000385,-0.00000132,-0.00000740,0.00000097,0.00004549,-0.000
 00776,0.00000091,-0.00000357,-0.00000780,0.00000066,0.00001026,-0.0000
 0125,-0.00000014,0.00000344,0.00000886,-0.00000120,-0.00000503,0.00000
 004,-0.00000023,-0.00001062,0.00003950,-0.00000325,-0.00000437,-0.0000
 2783,0.00001398,0.00000526,0.00006414,-0.00003200,-0.00004431,-0.00023
 873,0.00017515,-0.00000280,0.00001314,-0.00000197,-0.00000028,-0.00000
 178,0.00000337,0.01454338,-0.00832884,0.01070855,0.07120430,-0.0773193
 8,0.04461836,0.00003182,-0.00001451,-0.00001212,-0.00032442,0.00014330
 ,-0.00008312,-0.00002017,-0.00002293,-0.00002950,-0.00000032,0.0000011
 5,-0.00000010,0.00000104,0.00000032,0.00000054,0.00000104,0.00000037,0
 .00000008,0.00000012,-0.00000038,-0.00000041,0.00000253,0.00000126,-0.
 00000670,0.00000180,0.00000487,0.00000670,0.00000798,0.00000073,-0.000
 00200,0.00005336,0.00017166,0.00003592,0.00000006,-0.00000008,-0.00000
 104,0.00000157,-0.00000143,-0.00000036,0.00000003,-0.00000171,-0.00000
 163,0.00000078,0.00000007,-0.00000057,-0.00000014,-0.00000014,-0.00000
 010,-0.00134787,-0.00126286,0.00276328,-0.00041759,0.00064907,-0.00089
 118,0.01279258,-0.00588259,0.00873415,-0.01972164,0.01027695,-0.012470
 18,-0.07776753,0.08069267,-0.00019948,-0.00003674,0.00003191,0.0001978
 8,-0.00008319,0.00012276,-0.00002885,-0.00014188,-0.00002541,0.0001829
 6,-0.00013903,0.00017420,0.00014576,0.00007345,-0.00001896,0.00010506,
 0.00002731,0.00000494,0.00011708,0.00016062,-0.00002071,-0.00014730,0.
 00031600,0.00007914,0.00007954,-0.00104982,0.00107421,-0.00000758,-0.0
 0003160,-0.00002064,-0.00002362,-0.00000927,0.00001754,0.00000939,0.00
 001117,-0.00000017,-0.00007299,0.00002100,-0.00000582,0.00001254,0.000
 00909,-0.00000141,-0.00001668,0.00000535,-0.00000118,-0.00000393,-0.00
 001558,0.00000186,0.00000837,-0.00000065,-0.00000040,-0.00002696,-0.00
 000905,-0.00001057,0.00001073,0.00000357,-0.00001644,-0.00000160,-0.00
 007511,0.00002560,0.00025865,0.00038845,-0.00003747,0.00000317,-0.0000
 2109,0.00000648,0.00000067,0.00000319,-0.00000437,-0.02115010,0.008713
 03,-0.01580184,-0.10452538,0.04526077,-0.11407515,0.00000854,-0.000005
 03,-0.00000080,-0.00004424,0.00012947,-0.00025976,-0.00002000,0.000004
 29,-0.00003266,0.00000040,-0.00000095,0.00000044,-0.00000073,-0.000000
 43,-0.00000050,-0.00000128,-0.00000037,0.00000001,0.00000054,0.0000003
 9,0.00000069,0.00000779,-0.00000169,0.00000739,-0.00000183,-0.00000799
 ,-0.00000316,0.00000188,0.00000051,0.00000344,-0.00001721,-0.00017046,
 -0.00003719,0.00000152,0.00000118,-0.00000137,-0.00000101,0.00000198,-
 0.00000058,0.00000027,0.00000228,0.00000229,-0.00000078,-0.00000034,0.
 00000064,0.00000008,0.00000057,0.00000073,0.00243630,0.00322413,-0.002
 71722,-0.00032143,-0.00072278,0.00119459,0.01593808,-0.00617066,0.0115
 3519,-0.00791077,0.00368425,-0.00579224,0.11499657,-0.05334834,0.12460
 198||-0.00000038,0.00000155,-0.00000025,0.00000093,0.00000040,-0.00000
 182,0.00000221,-0.00000590,-0.00000038,-0.00001310,-0.00000512,-0.0000
 0455,-0.00000510,-0.00000162,-0.00000785,0.00000598,0.00001170,-0.0000
 0164,-0.00000513,0.00000568,0.00000093,0.00001687,0.00000108,-0.000000
 19,0.00000057,0.00001099,0.00001070,0.00000208,-0.00000248,0.00000350,
 0.00000052,-0.00000238,-0.00000115,-0.00000868,-0.00001177,0.00000109,
 0.00000902,-0.00000409,0.00000106,-0.00000038,-0.00000416,0.00000188,0
 .00000327,-0.00000407,0.00000029,-0.00000008,-0.00000799,-0.00000093,0
 .00000451,-0.00000356,-0.00000150,-0.00000111,0.00000585,0.00000110,-0
 .00000235,0.00000340,0.00000133,0.00000774,0.00000954,0.00000506,-0.00
 000883,0.00000829,0.00000329,-0.00000438,0.00000417,-0.00000229,-0.000
 00428,-0.00000149,-0.00000784,-0.00000573,-0.00000597,-0.00000128,-0.0
 0000034,0.00000161,-0.00000113,-0.00000193,-0.00000166,-0.00000232,0.0
 0000006,0.00000015,0.00000079,-0.00000246,0.00000205,-0.00000260,0.000
 00336,-0.00000337,0.00000307,0.00000239,-0.00000615,0.00000217,0.00000
 055,-0.00000784,-0.00000128,-0.00000150,-0.00000696,-0.00000380,-0.000
 00180,0.00000720,-0.00000116,-0.00000005,0.00000898,0.00000207,0.00000
 193,0.00000724,0.00000521,0.00000322,0.00000473,0.00000511,-0.00000246
 ,-0.00000592,-0.00000487,-0.00000189,-0.00000797,-0.00000617,-0.000003
 59,-0.00000380,-0.00000588,-0.00000274,-0.00000288,-0.00000471,-0.0000
 0244,-0.00000217,-0.00000512,0.00000218,0.00000102,0.00000147,0.000002
 74,0.00000263,0.00000404,0.00000268,0.00000402,0.00000419,0.00000405,0
 .00000254,0.00000675,0.00000387,0.00000449,0.00000561|||@


 TWO ROADS DIVERGED IN A WOOD, AND I--
 I TOOK THE ONE LESS TRAVELED BY,
 AND THAT HAS MADE ALL THE DIFFERENCE.

                       -- ROBERT FROST
 Job cpu time:  0 days  7 hours 28 minutes 13.0 seconds.
 File lengths (MBytes):  RWF=   2646 Int=      0 D2E=      0 Chk=     54 Scr=      1
 Normal termination of Gaussian 09 at Sat Oct 28 02:52:43 2023.
