 Entering Link 1 = D:\G09W\l1.exe PID=     36848.
  
 Copyright (c) 1988,1990,1992,1993,1995,1998,2003,2009, Gaussian, Inc.
                  All Rights Reserved.
  
 This is part of the Gaussian(R) 09 program.  It is based on
 the Gaussian(R) 03 system (copyright 2003, Gaussian, Inc.),
 the Gaussian(R) 98 system (copyright 1998, Gaussian, Inc.),
 the Gaussian(R) 94 system (copyright 1995, Gaussian, Inc.),
 the Gaussian 92(TM) system (copyright 1992, Gaussian, Inc.),
 the Gaussian 90(TM) system (copyright 1990, Gaussian, Inc.),
 the Gaussian 88(TM) system (copyright 1988, Gaussian, Inc.),
 the Gaussian 86(TM) system (copyright 1986, Carnegie Mellon
 University), and the Gaussian 82(TM) system (copyright 1983,
 Carnegie Mellon University). Gaussian is a federally registered
 trademark of Gaussian, Inc.
  
 This software contains proprietary and confidential information,
 including trade secrets, belonging to Gaussian, Inc.
  
 This software is provided under written license and may be
 used, copied, transmitted, or stored only in accord with that
 written license.
  
 The following legend is applicable only to US Government
 contracts under FAR:
  
                    RESTRICTED RIGHTS LEGEND
  
 Use, reproduction and disclosure by the US Government is
 subject to restrictions as set forth in subparagraphs (a)
 and (c) of the Commercial Computer Software - Restricted
 Rights clause in FAR 52.227-19.
  
 Gaussian, Inc.
 340 Quinnipiac St., Bldg. 40, Wallingford CT 06492
  
  
 ---------------------------------------------------------------
 Warning -- This program may not be used in any manner that
 competes with the business of Gaussian, Inc. or will provide
 assistance to any competitor of Gaussian, Inc.  The licensee
 of this program is prohibited from giving any competitor of
 Gaussian, Inc. access to this program.  By using this program,
 the user acknowledges that Gaussian, Inc. is engaged in the
 business of creating and licensing software in the field of
 computational chemistry and represents and warrants to the
 licensee that it is not a competitor of Gaussian, Inc. and that
 it will not use this program in any manner prohibited above.
 ---------------------------------------------------------------
  

 Cite this work as:
 Gaussian 09, Revision A.02,
 M. J. Frisch, G. W. Trucks, H. B. Schlegel, G. E. Scuseria, 
 M. A. Robb, J. R. Cheeseman, G. Scalmani, V. Barone, B. Mennucci, 
 G. A. Petersson, H. Nakatsuji, M. Caricato, X. Li, H. P. Hratchian, 
 A. F. Izmaylov, J. Bloino, G. Zheng, J. L. Sonnenberg, M. Hada, 
 M. Ehara, K. Toyota, R. Fukuda, J. Hasegawa, M. Ishida, T. Nakajima, 
 Y. Honda, O. Kitao, H. Nakai, T. Vreven, J. A. Montgomery, Jr., 
 J. E. Peralta, F. Ogliaro, M. Bearpark, J. J. Heyd, E. Brothers, 
 K. N. Kudin, V. N. Staroverov, R. Kobayashi, J. Normand, 
 K. Raghavachari, A. Rendell, J. C. Burant, S. S. Iyengar, J. Tomasi, 
 M. Cossi, N. Rega, J. M. Millam, M. Klene, J. E. Knox, J. B. Cross, 
 V. Bakken, C. Adamo, J. Jaramillo, R. Gomperts, R. E. Stratmann, 
 O. Yazyev, A. J. Austin, R. Cammi, C. Pomelli, J. W. Ochterski, 
 R. L. Martin, K. Morokuma, V. G. Zakrzewski, G. A. Voth, 
 P. Salvador, J. J. Dannenberg, S. Dapprich, A. D. Daniels, 
 O. Farkas, J. B. Foresman, J. V. Ortiz, J. Cioslowski, 
 and D. J. Fox, Gaussian, Inc., Wallingford CT, 2009.
 
 ******************************************
 Gaussian 09:  IA32W-G09RevA.02 11-Jun-2009
                25-Oct-2023 
 ******************************************
 %nproc=4
 Will use up to    4 processors via shared memory.
 %mem=1175MB
 -----------------------
 # opt freq b3lyp/6-31g*
 -----------------------
 1/14=-1,18=20,19=15,26=3,38=1/1,3;
 2/9=110,12=2,17=6,18=5,40=1/2;
 3/5=1,6=6,7=1,11=2,16=1,25=1,30=1,71=1,74=-5/1,2,3;
 4//1;
 5/5=2,38=5/2;
 6/7=2,8=2,9=2,10=2,28=1/1;
 7//1,2,3,16;
 1/14=-1,18=20,19=15/3(2);
 2/9=110/2;
 99//99;
 2/9=110/2;
 3/5=1,6=6,7=1,11=2,16=1,25=1,30=1,71=1,74=-5/1,2,3;
 4/5=5,16=3/1;
 5/5=2,38=5/2;
 7//1,2,3,16;
 1/14=-1,18=20,19=15/3(-5);
 2/9=110/2;
 6/7=2,8=2,9=2,10=2,19=2,28=1/1;
 99/9=1/99;
 ---
 A-2
 ---
 Symbolic Z-matrix:
 Charge =  1 Multiplicity = 1
 C                    0    -8.73838  -1.0738    0.03176 
 C                    0    -7.52877  -0.47898   0.10396 
 C                    0    -6.37129  -1.15367  -0.03434 
 C                    0    -5.08715  -0.731     0.00982 
 C                    0    -9.95394  -0.49783   0.14032 
 S                    0    -4.05631  -1.76116  -0.22886 
 C                    0    -2.89371  -0.87802  -0.14969 
 C                    0    -3.25131   0.38245   0.13038 
 N                    0    -4.5169    0.38518   0.22558 
 S                    0    -10.1257   0.94962   0.35713 
 C                    0    -11.5855   0.94934   0.3455 
 C                    0    -12.0622  -0.28878   0.16973 
 N                    0    -11.0889  -1.15122   0.05764 
 C                    0    -12.3996   2.00559   0.48638 
 C                    0    -13.7264   1.80044   0.44521 
 C                    0    -14.2159   0.56253   0.26421 
 C                    0    -13.3892  -0.48747   0.12451 
 C                    0    -1.60748  -1.22058  -0.31388 
 C                    0    -0.67007  -0.26586  -0.19581 
 C                    0    -1.02135   1.00046   0.08326 
 C                    0    -2.31234   1.33477   0.24906 
 C                    0    -11.2756  -2.64608  -0.14526 
 C                    0    -11.259   -2.99448  -1.63757 
 C                    0    -5.21087   1.6413    0.58319 
 C                    0    -5.65322   2.42614  -0.65807 
 H                    0    -8.72375  -2.16224  -0.14241 
 H                    0    -7.50436   0.60148   0.26842 
 H                    0    -6.53523  -2.23486  -0.22577 
 H                    0    -12.0091   3.02727   0.63278 
 H                    0    -14.4171   2.65301   0.5575 
 H                    0    -15.3075   0.4077    0.22741 
 H                    0    -13.8197  -1.48874  -0.02963 
 H                    0    -1.30436  -2.25717  -0.5406 
 H                    0     0.39432  -0.52325  -0.32856 
 H                    0    -0.24035   1.77442   0.17417 
 H                    0    -2.55994   2.38464   0.46681 
 H                    0    -10.4997  -3.22418   0.40507 
 H                    0    -12.233   -2.98739   0.30952 
 H                    0    -11.4005  -4.08827  -1.79598 
 H                    0    -12.075   -2.46224  -2.17801 
 H                    0    -10.2926  -2.70453  -2.10904 
 H                    0    -6.03902   1.45399   1.29797 
 H                    0    -4.56569   2.30112   1.20639 
 H                    0    -6.31096   1.82104  -1.32098 
 H                    0    -6.21184   3.34684  -0.37225 
 H                    0    -4.77157   2.73707  -1.2641 
 

 GradGradGradGradGradGradGradGradGradGradGradGradGradGradGradGradGradGrad
 Berny optimization.
 Initialization pass.
                           ----------------------------
                           !    Initial Parameters    !
                           ! (Angstroms and Degrees)  !
 --------------------------                            --------------------------
 ! Name  Definition              Value          Derivative Info.                !
 --------------------------------------------------------------------------------
 ! R1    R(1,2)                  1.3499         estimate D2E/DX2                !
 ! R2    R(1,5)                  1.3495         estimate D2E/DX2                !
 ! R3    R(1,26)                 1.1024         estimate D2E/DX2                !
 ! R4    R(2,3)                  1.3469         estimate D2E/DX2                !
 ! R5    R(2,27)                 1.0932         estimate D2E/DX2                !
 ! R6    R(3,4)                  1.3526         estimate D2E/DX2                !
 ! R7    R(3,28)                 1.1102         estimate D2E/DX2                !
 ! R8    R(4,6)                  1.4768         estimate D2E/DX2                !
 ! R9    R(4,9)                  1.2718         estimate D2E/DX2                !
 ! R10   R(5,10)                 1.4736         estimate D2E/DX2                !
 ! R11   R(5,13)                 1.3122         estimate D2E/DX2                !
 ! R12   R(6,7)                  1.4621         estimate D2E/DX2                !
 ! R13   R(7,8)                  1.3398         estimate D2E/DX2                !
 ! R14   R(7,18)                 1.3412         estimate D2E/DX2                !
 ! R15   R(8,9)                  1.2692         estimate D2E/DX2                !
 ! R16   R(8,21)                 1.3426         estimate D2E/DX2                !
 ! R17   R(9,24)                 1.479          estimate D2E/DX2                !
 ! R18   R(10,11)                1.4598         estimate D2E/DX2                !
 ! R19   R(11,12)                1.3383         estimate D2E/DX2                !
 ! R20   R(11,14)                1.341          estimate D2E/DX2                !
 ! R21   R(12,13)                1.3053         estimate D2E/DX2                !
 ! R22   R(12,17)                1.3426         estimate D2E/DX2                !
 ! R23   R(13,22)                1.5201         estimate D2E/DX2                !
 ! R24   R(14,15)                1.3432         estimate D2E/DX2                !
 ! R25   R(14,29)                1.1035         estimate D2E/DX2                !
 ! R26   R(15,16)                1.3434         estimate D2E/DX2                !
 ! R27   R(15,30)                1.103          estimate D2E/DX2                !
 ! R28   R(16,17)                1.3437         estimate D2E/DX2                !
 ! R29   R(16,31)                1.1031         estimate D2E/DX2                !
 ! R30   R(17,32)                1.1007         estimate D2E/DX2                !
 ! R31   R(18,19)                1.3432         estimate D2E/DX2                !
 ! R32   R(18,33)                1.1035         estimate D2E/DX2                !
 ! R33   R(19,20)                1.3434         estimate D2E/DX2                !
 ! R34   R(19,34)                1.1031         estimate D2E/DX2                !
 ! R35   R(20,21)                1.3438         estimate D2E/DX2                !
 ! R36   R(20,35)                1.1033         estimate D2E/DX2                !
 ! R37   R(21,36)                1.1004         estimate D2E/DX2                !
 ! R38   R(22,23)                1.5325         estimate D2E/DX2                !
 ! R39   R(22,37)                1.1131         estimate D2E/DX2                !
 ! R40   R(22,38)                1.1135         estimate D2E/DX2                !
 ! R41   R(23,39)                1.1142         estimate D2E/DX2                !
 ! R42   R(23,40)                1.1141         estimate D2E/DX2                !
 ! R43   R(23,41)                1.1137         estimate D2E/DX2                !
 ! R44   R(24,25)                1.5337         estimate D2E/DX2                !
 ! R45   R(24,42)                1.1099         estimate D2E/DX2                !
 ! R46   R(24,43)                1.1136         estimate D2E/DX2                !
 ! R47   R(25,44)                1.1127         estimate D2E/DX2                !
 ! R48   R(25,45)                1.1142         estimate D2E/DX2                !
 ! R49   R(25,46)                1.1141         estimate D2E/DX2                !
 ! A1    A(2,1,5)              127.9363         estimate D2E/DX2                !
 ! A2    A(2,1,26)             115.571          estimate D2E/DX2                !
 ! A3    A(5,1,26)             116.4919         estimate D2E/DX2                !
 ! A4    A(1,2,3)              122.9465         estimate D2E/DX2                !
 ! A5    A(1,2,27)             117.618          estimate D2E/DX2                !
 ! A6    A(3,2,27)             119.4297         estimate D2E/DX2                !
 ! A7    A(2,3,4)              130.9942         estimate D2E/DX2                !
 ! A8    A(2,3,28)             112.2499         estimate D2E/DX2                !
 ! A9    A(4,3,28)             116.7527         estimate D2E/DX2                !
 ! A10   A(3,4,6)              116.0682         estimate D2E/DX2                !
 ! A11   A(3,4,9)              134.8644         estimate D2E/DX2                !
 ! A12   A(6,4,9)              109.065          estimate D2E/DX2                !
 ! A13   A(1,5,10)             122.4147         estimate D2E/DX2                !
 ! A14   A(1,5,13)             124.1595         estimate D2E/DX2                !
 ! A15   A(10,5,13)            113.4245         estimate D2E/DX2                !
 ! A16   A(4,6,7)               97.1777         estimate D2E/DX2                !
 ! A17   A(6,7,8)              111.5511         estimate D2E/DX2                !
 ! A18   A(6,7,18)             126.9898         estimate D2E/DX2                !
 ! A19   A(8,7,18)             121.4568         estimate D2E/DX2                !
 ! A20   A(7,8,9)              106.4899         estimate D2E/DX2                !
 ! A21   A(7,8,21)             119.9409         estimate D2E/DX2                !
 ! A22   A(9,8,21)             133.569          estimate D2E/DX2                !
 ! A23   A(4,9,8)              115.6259         estimate D2E/DX2                !
 ! A24   A(4,9,24)             125.1703         estimate D2E/DX2                !
 ! A25   A(8,9,24)             119.2003         estimate D2E/DX2                !
 ! A26   A(5,10,11)             96.6148         estimate D2E/DX2                !
 ! A27   A(10,11,12)           110.9408         estimate D2E/DX2                !
 ! A28   A(10,11,14)           127.3068         estimate D2E/DX2                !
 ! A29   A(12,11,14)           121.7524         estimate D2E/DX2                !
 ! A30   A(11,12,13)           110.9131         estimate D2E/DX2                !
 ! A31   A(11,12,17)           119.5647         estimate D2E/DX2                !
 ! A32   A(13,12,17)           129.5211         estimate D2E/DX2                !
 ! A33   A(5,13,12)            108.0918         estimate D2E/DX2                !
 ! A34   A(5,13,22)            127.1795         estimate D2E/DX2                !
 ! A35   A(12,13,22)           124.7266         estimate D2E/DX2                !
 ! A36   A(11,14,15)           118.4345         estimate D2E/DX2                !
 ! A37   A(11,14,29)           121.8944         estimate D2E/DX2                !
 ! A38   A(15,14,29)           119.6711         estimate D2E/DX2                !
 ! A39   A(14,15,16)           120.317          estimate D2E/DX2                !
 ! A40   A(14,15,30)           119.8276         estimate D2E/DX2                !
 ! A41   A(16,15,30)           119.8551         estimate D2E/DX2                !
 ! A42   A(15,16,17)           120.6568         estimate D2E/DX2                !
 ! A43   A(15,16,31)           119.6285         estimate D2E/DX2                !
 ! A44   A(17,16,31)           119.7145         estimate D2E/DX2                !
 ! A45   A(12,17,16)           119.2735         estimate D2E/DX2                !
 ! A46   A(12,17,32)           121.7293         estimate D2E/DX2                !
 ! A47   A(16,17,32)           118.9965         estimate D2E/DX2                !
 ! A48   A(7,18,19)            118.4903         estimate D2E/DX2                !
 ! A49   A(7,18,33)            121.9046         estimate D2E/DX2                !
 ! A50   A(19,18,33)           119.6051         estimate D2E/DX2                !
 ! A51   A(18,19,20)           120.3811         estimate D2E/DX2                !
 ! A52   A(18,19,34)           119.8012         estimate D2E/DX2                !
 ! A53   A(20,19,34)           119.8177         estimate D2E/DX2                !
 ! A54   A(19,20,21)           120.7515         estimate D2E/DX2                !
 ! A55   A(19,20,35)           119.5546         estimate D2E/DX2                !
 ! A56   A(21,20,35)           119.6937         estimate D2E/DX2                !
 ! A57   A(8,21,20)            118.979          estimate D2E/DX2                !
 ! A58   A(8,21,36)            122.4686         estimate D2E/DX2                !
 ! A59   A(20,21,36)           118.5489         estimate D2E/DX2                !
 ! A60   A(13,22,23)           110.6225         estimate D2E/DX2                !
 ! A61   A(13,22,37)           111.0465         estimate D2E/DX2                !
 ! A62   A(13,22,38)           110.6414         estimate D2E/DX2                !
 ! A63   A(23,22,37)           110.8425         estimate D2E/DX2                !
 ! A64   A(23,22,38)           109.714          estimate D2E/DX2                !
 ! A65   A(37,22,38)           103.7808         estimate D2E/DX2                !
 ! A66   A(22,23,39)           111.1144         estimate D2E/DX2                !
 ! A67   A(22,23,40)           110.8438         estimate D2E/DX2                !
 ! A68   A(22,23,41)           111.2505         estimate D2E/DX2                !
 ! A69   A(39,23,40)           107.878          estimate D2E/DX2                !
 ! A70   A(39,23,41)           107.7937         estimate D2E/DX2                !
 ! A71   A(40,23,41)           107.8081         estimate D2E/DX2                !
 ! A72   A(9,24,25)            111.9785         estimate D2E/DX2                !
 ! A73   A(9,24,42)            111.2541         estimate D2E/DX2                !
 ! A74   A(9,24,43)            111.5131         estimate D2E/DX2                !
 ! A75   A(25,24,42)           113.1016         estimate D2E/DX2                !
 ! A76   A(25,24,43)           108.4708         estimate D2E/DX2                !
 ! A77   A(42,24,43)            99.8976         estimate D2E/DX2                !
 ! A78   A(24,25,44)           111.9838         estimate D2E/DX2                !
 ! A79   A(24,25,45)           111.09           estimate D2E/DX2                !
 ! A80   A(24,25,46)           110.7811         estimate D2E/DX2                !
 ! A81   A(44,25,45)           107.8076         estimate D2E/DX2                !
 ! A82   A(44,25,46)           107.1857         estimate D2E/DX2                !
 ! A83   A(45,25,46)           107.799          estimate D2E/DX2                !
 ! D1    D(5,1,2,3)           -179.2267         estimate D2E/DX2                !
 ! D2    D(5,1,2,27)            -0.1095         estimate D2E/DX2                !
 ! D3    D(26,1,2,3)             0.433          estimate D2E/DX2                !
 ! D4    D(26,1,2,27)          179.5503         estimate D2E/DX2                !
 ! D5    D(2,1,5,10)             0.4245         estimate D2E/DX2                !
 ! D6    D(2,1,5,13)           179.9876         estimate D2E/DX2                !
 ! D7    D(26,1,5,10)         -179.2326         estimate D2E/DX2                !
 ! D8    D(26,1,5,13)            0.3305         estimate D2E/DX2                !
 ! D9    D(1,2,3,4)           -179.8719         estimate D2E/DX2                !
 ! D10   D(1,2,3,28)             0.8159         estimate D2E/DX2                !
 ! D11   D(27,2,3,4)             1.0262         estimate D2E/DX2                !
 ! D12   D(27,2,3,28)         -178.286          estimate D2E/DX2                !
 ! D13   D(2,3,4,6)           -178.1646         estimate D2E/DX2                !
 ! D14   D(2,3,4,9)              2.4771         estimate D2E/DX2                !
 ! D15   D(28,3,4,6)             1.1225         estimate D2E/DX2                !
 ! D16   D(28,3,4,9)          -178.2358         estimate D2E/DX2                !
 ! D17   D(3,4,6,7)            177.6387         estimate D2E/DX2                !
 ! D18   D(9,4,6,7)             -2.8425         estimate D2E/DX2                !
 ! D19   D(3,4,9,8)           -177.5449         estimate D2E/DX2                !
 ! D20   D(3,4,9,24)             3.1456         estimate D2E/DX2                !
 ! D21   D(6,4,9,8)              3.065          estimate D2E/DX2                !
 ! D22   D(6,4,9,24)          -176.2445         estimate D2E/DX2                !
 ! D23   D(1,5,10,11)          178.4385         estimate D2E/DX2                !
 ! D24   D(13,5,10,11)          -1.1676         estimate D2E/DX2                !
 ! D25   D(1,5,13,12)         -178.3192         estimate D2E/DX2                !
 ! D26   D(1,5,13,22)            1.172          estimate D2E/DX2                !
 ! D27   D(10,5,13,12)           1.2788         estimate D2E/DX2                !
 ! D28   D(10,5,13,22)        -179.2299         estimate D2E/DX2                !
 ! D29   D(4,6,7,8)              1.9654         estimate D2E/DX2                !
 ! D30   D(4,6,7,18)          -178.5795         estimate D2E/DX2                !
 ! D31   D(6,7,8,9)             -0.4687         estimate D2E/DX2                !
 ! D32   D(6,7,8,21)           179.6514         estimate D2E/DX2                !
 ! D33   D(18,7,8,9)          -179.9585         estimate D2E/DX2                !
 ! D34   D(18,7,8,21)            0.1616         estimate D2E/DX2                !
 ! D35   D(6,7,18,19)         -179.6226         estimate D2E/DX2                !
 ! D36   D(6,7,18,33)            0.3384         estimate D2E/DX2                !
 ! D37   D(8,7,18,19)           -0.2167         estimate D2E/DX2                !
 ! D38   D(8,7,18,33)          179.7442         estimate D2E/DX2                !
 ! D39   D(7,8,9,4)             -1.665          estimate D2E/DX2                !
 ! D40   D(7,8,9,24)           177.6884         estimate D2E/DX2                !
 ! D41   D(21,8,9,4)           178.1914         estimate D2E/DX2                !
 ! D42   D(21,8,9,24)           -2.4552         estimate D2E/DX2                !
 ! D43   D(7,8,21,20)           -0.0192         estimate D2E/DX2                !
 ! D44   D(7,8,21,36)          179.2961         estimate D2E/DX2                !
 ! D45   D(9,8,21,20)         -179.8603         estimate D2E/DX2                !
 ! D46   D(9,8,21,36)           -0.545          estimate D2E/DX2                !
 ! D47   D(4,9,24,25)          -87.4975         estimate D2E/DX2                !
 ! D48   D(4,9,24,42)           40.1624         estimate D2E/DX2                !
 ! D49   D(4,9,24,43)          150.7454         estimate D2E/DX2                !
 ! D50   D(8,9,24,25)           93.2157         estimate D2E/DX2                !
 ! D51   D(8,9,24,42)         -139.1244         estimate D2E/DX2                !
 ! D52   D(8,9,24,43)          -28.5415         estimate D2E/DX2                !
 ! D53   D(5,10,11,12)           0.6636         estimate D2E/DX2                !
 ! D54   D(5,10,11,14)        -179.3697         estimate D2E/DX2                !
 ! D55   D(10,11,12,13)         -0.0013         estimate D2E/DX2                !
 ! D56   D(10,11,12,17)       -179.6555         estimate D2E/DX2                !
 ! D57   D(14,11,12,13)       -179.9702         estimate D2E/DX2                !
 ! D58   D(14,11,12,17)          0.3757         estimate D2E/DX2                !
 ! D59   D(10,11,14,15)        179.9031         estimate D2E/DX2                !
 ! D60   D(10,11,14,29)         -0.0468         estimate D2E/DX2                !
 ! D61   D(12,11,14,15)         -0.1335         estimate D2E/DX2                !
 ! D62   D(12,11,14,29)        179.9166         estimate D2E/DX2                !
 ! D63   D(11,12,13,5)          -0.7766         estimate D2E/DX2                !
 ! D64   D(11,12,13,22)        179.7166         estimate D2E/DX2                !
 ! D65   D(17,12,13,5)         178.8334         estimate D2E/DX2                !
 ! D66   D(17,12,13,22)         -0.6734         estimate D2E/DX2                !
 ! D67   D(11,12,17,16)         -0.358          estimate D2E/DX2                !
 ! D68   D(11,12,17,32)        179.3101         estimate D2E/DX2                !
 ! D69   D(13,12,17,16)       -179.9392         estimate D2E/DX2                !
 ! D70   D(13,12,17,32)         -0.2711         estimate D2E/DX2                !
 ! D71   D(5,13,22,23)         -86.3356         estimate D2E/DX2                !
 ! D72   D(5,13,22,37)          37.1784         estimate D2E/DX2                !
 ! D73   D(5,13,22,38)         151.8677         estimate D2E/DX2                !
 ! D74   D(12,13,22,23)         93.076          estimate D2E/DX2                !
 ! D75   D(12,13,22,37)       -143.41           estimate D2E/DX2                !
 ! D76   D(12,13,22,38)        -28.7207         estimate D2E/DX2                !
 ! D77   D(11,14,15,16)         -0.1208         estimate D2E/DX2                !
 ! D78   D(11,14,15,30)       -179.9341         estimate D2E/DX2                !
 ! D79   D(29,14,15,16)        179.8302         estimate D2E/DX2                !
 ! D80   D(29,14,15,30)          0.0169         estimate D2E/DX2                !
 ! D81   D(14,15,16,17)          0.1319         estimate D2E/DX2                !
 ! D82   D(14,15,16,31)       -179.7092         estimate D2E/DX2                !
 ! D83   D(30,15,16,17)        179.9451         estimate D2E/DX2                !
 ! D84   D(30,15,16,31)          0.104          estimate D2E/DX2                !
 ! D85   D(15,16,17,12)          0.1101         estimate D2E/DX2                !
 ! D86   D(15,16,17,32)       -179.5671         estimate D2E/DX2                !
 ! D87   D(31,16,17,12)        179.9511         estimate D2E/DX2                !
 ! D88   D(31,16,17,32)          0.2738         estimate D2E/DX2                !
 ! D89   D(7,18,19,20)           0.1326         estimate D2E/DX2                !
 ! D90   D(7,18,19,34)        -179.8817         estimate D2E/DX2                !
 ! D91   D(33,18,19,20)       -179.8293         estimate D2E/DX2                !
 ! D92   D(33,18,19,34)          0.1564         estimate D2E/DX2                !
 ! D93   D(18,19,20,21)          0.0047         estimate D2E/DX2                !
 ! D94   D(18,19,20,35)       -179.8137         estimate D2E/DX2                !
 ! D95   D(34,19,20,21)       -179.981          estimate D2E/DX2                !
 ! D96   D(34,19,20,35)          0.2007         estimate D2E/DX2                !
 ! D97   D(19,20,21,8)          -0.0624         estimate D2E/DX2                !
 ! D98   D(19,20,21,36)       -179.4047         estimate D2E/DX2                !
 ! D99   D(35,20,21,8)         179.7557         estimate D2E/DX2                !
 ! D100  D(35,20,21,36)          0.4133         estimate D2E/DX2                !
 ! D101  D(13,22,23,39)       -179.7103         estimate D2E/DX2                !
 ! D102  D(13,22,23,40)        -59.7661         estimate D2E/DX2                !
 ! D103  D(13,22,23,41)         60.1802         estimate D2E/DX2                !
 ! D104  D(37,22,23,39)         56.6581         estimate D2E/DX2                !
 ! D105  D(37,22,23,40)        176.6023         estimate D2E/DX2                !
 ! D106  D(37,22,23,41)        -63.4515         estimate D2E/DX2                !
 ! D107  D(38,22,23,39)        -57.3696         estimate D2E/DX2                !
 ! D108  D(38,22,23,40)         62.5746         estimate D2E/DX2                !
 ! D109  D(38,22,23,41)       -177.4792         estimate D2E/DX2                !
 ! D110  D(9,24,25,44)          56.9753         estimate D2E/DX2                !
 ! D111  D(9,24,25,45)         177.584          estimate D2E/DX2                !
 ! D112  D(9,24,25,46)         -62.629          estimate D2E/DX2                !
 ! D113  D(42,24,25,44)        -69.6911         estimate D2E/DX2                !
 ! D114  D(42,24,25,45)         50.9177         estimate D2E/DX2                !
 ! D115  D(42,24,25,46)        170.7047         estimate D2E/DX2                !
 ! D116  D(43,24,25,44)       -179.5381         estimate D2E/DX2                !
 ! D117  D(43,24,25,45)        -58.9294         estimate D2E/DX2                !
 ! D118  D(43,24,25,46)         60.8577         estimate D2E/DX2                !
 --------------------------------------------------------------------------------
 Trust Radius=3.00D-01 FncErr=1.00D-07 GrdErr=1.00D-06
 Number of steps in this run= 260 maximum allowed number of steps= 276.
 GradGradGradGradGradGradGradGradGradGradGradGradGradGradGradGradGradGrad

                          Input orientation:                          
 ---------------------------------------------------------------------
 Center     Atomic      Atomic             Coordinates (Angstroms)
 Number     Number       Type             X           Y           Z
 ---------------------------------------------------------------------
      1          6           0       -8.738380   -1.073800    0.031757
      2          6           0       -7.528770   -0.478983    0.103956
      3          6           0       -6.371290   -1.153670   -0.034335
      4          6           0       -5.087150   -0.731001    0.009817
      5          6           0       -9.953940   -0.497832    0.140319
      6         16           0       -4.056310   -1.761160   -0.228859
      7          6           0       -2.893710   -0.878023   -0.149691
      8          6           0       -3.251310    0.382454    0.130381
      9          7           0       -4.516900    0.385177    0.225576
     10         16           0      -10.125700    0.949617    0.357131
     11          6           0      -11.585500    0.949342    0.345500
     12          6           0      -12.062200   -0.288782    0.169732
     13          7           0      -11.088900   -1.151220    0.057635
     14          6           0      -12.399600    2.005590    0.486380
     15          6           0      -13.726400    1.800440    0.445209
     16          6           0      -14.215900    0.562525    0.264205
     17          6           0      -13.389200   -0.487471    0.124506
     18          6           0       -1.607480   -1.220580   -0.313881
     19          6           0       -0.670066   -0.265863   -0.195814
     20          6           0       -1.021350    1.000460    0.083261
     21          6           0       -2.312340    1.334770    0.249061
     22          6           0      -11.275600   -2.646080   -0.145261
     23          6           0      -11.259000   -2.994480   -1.637570
     24          6           0       -5.210870    1.641300    0.583185
     25          6           0       -5.653220    2.426140   -0.658074
     26          1           0       -8.723750   -2.162240   -0.142414
     27          1           0       -7.504360    0.601479    0.268415
     28          1           0       -6.535230   -2.234860   -0.225774
     29          1           0      -12.009100    3.027270    0.632776
     30          1           0      -14.417100    2.653010    0.557499
     31          1           0      -15.307500    0.407701    0.227408
     32          1           0      -13.819700   -1.488740   -0.029628
     33          1           0       -1.304360   -2.257170   -0.540599
     34          1           0        0.394317   -0.523247   -0.328555
     35          1           0       -0.240354    1.774420    0.174165
     36          1           0       -2.559940    2.384640    0.466810
     37          1           0      -10.499700   -3.224180    0.405065
     38          1           0      -12.233000   -2.987390    0.309515
     39          1           0      -11.400500   -4.088270   -1.795980
     40          1           0      -12.075000   -2.462240   -2.178010
     41          1           0      -10.292600   -2.704530   -2.109040
     42          1           0       -6.039020    1.453990    1.297970
     43          1           0       -4.565690    2.301120    1.206390
     44          1           0       -6.310960    1.821040   -1.320980
     45          1           0       -6.211840    3.346840   -0.372245
     46          1           0       -4.771570    2.737070   -1.264100
 ---------------------------------------------------------------------
                    Distance matrix (angstroms):
                    1          2          3          4          5
     1  C    0.000000
     2  C    1.349880   0.000000
     3  C    2.369359   1.346880   0.000000
     4  C    3.667352   2.456396   1.352632   0.000000
     5  C    1.349485   2.425516   3.646369   4.874120   0.000000
     6  S    4.739427   3.716547   2.401253   1.476762   6.042709
     7  C    5.850762   4.659115   3.490394   2.204141   7.076404
     8  C    5.677882   4.363420   3.481535   2.150494   6.760196
     9  N    4.470690   3.135749   2.423709   1.271845   5.508936
    10  S    2.474821   2.974734   4.321187   5.322790   1.473641
    11  C    3.506798   4.307611   5.635150   6.720475   2.190525
    12  C    3.418051   4.537895   5.759873   6.990884   2.118803
    13  N    2.351937   3.623337   4.718507   6.016633   1.312207
    14  C    4.805607   5.481271   6.825876   7.822274   3.516836
    15  C    5.771702   6.612325   7.940678   9.013013   4.427919
    16  C    5.721435   6.769647   8.035693   9.223448   4.393633
    17  C    4.688551   5.860472   7.051249   8.306413   3.435312
    18  C    7.140780   5.982159   4.772474   3.528820   8.389997
    19  C    8.111858   6.868559   5.772195   4.446265   9.292853
    20  C    7.991105   6.673507   5.768532   4.419738   9.057555
    21  C    6.866034   5.524663   4.769457   3.467595   7.859027
    22  C    2.990131   4.335568   5.127558   6.479853   2.538368
    23  C    3.581786   4.824443   5.463392   6.777090   3.331264
    24  C    4.485440   3.177723   3.088651   2.443741   5.221947
    25  C    4.716318   3.540920   3.704013   3.276286   5.261486
    26  H    1.102384   2.078949   2.561828   3.911071   2.088913
    27  H    2.094128   1.093179   2.110937   2.772234   2.687998
    28  H    2.503648   2.044247   1.110179   2.100959   3.852125
    29  H    5.279925   5.713739   7.050546   7.901017   4.110054
    30  H    6.812736   7.580513   8.920546   9.939791   5.479201
    31  H    6.736948   7.830076   9.075364  10.285890   5.430302
    32  H    5.098603   6.372853   7.455944   8.765452   3.994356
    33  H    7.549345   6.505435   5.210355   4.116024   8.852918
    34  H    9.156369   7.935007   6.801282   5.495829  10.358905
    35  H    8.963765   7.629139   6.797467   5.458532   9.975872
    36  H    7.093885   5.746414   5.224670   4.037679   7.942700
    37  H    2.804593   4.056254   4.639381   5.972258   2.793012
    38  H    3.993914   5.335179   6.151456   7.499619   3.379444
    39  H    4.417526   5.623789   6.083438   7.374995   4.328168
    40  H    4.236020   5.459751   6.232175   7.524216   3.705731
    41  H    3.107715   4.182005   4.699600   5.956600   3.169199
    42  H    3.908908   2.716875   2.947089   2.709166   4.525082
    43  H    5.493741   4.210009   4.090863   3.301131   6.164729
    44  H    4.012775   2.967088   3.241604   3.127562   4.558932
    45  H    5.107708   4.074064   4.515994   4.247315   5.389577
    46  H    5.651332   4.451598   4.382840   3.708095   6.268488
                    6          7          8          9         10
     6  S    0.000000
     7  C    1.462134   0.000000
     8  C    2.317792   1.339821   0.000000
     9  N    2.241744   2.090752   1.269168   0.000000
    10  S    6.673020   7.476551   6.901473   5.638664   0.000000
    11  C    8.022806   8.895599   8.356217   7.092092   1.459846
    12  C    8.149911   9.192956   8.836509   7.575546   2.306249
    13  N    7.064802   8.202363   7.986568   6.751289   2.330444
    14  C    9.182073   9.953982   9.297984   8.051752   2.510459
    15  C   10.327149  11.174759  10.575316   9.320198   3.700905
    16  C   10.433594  11.420966  10.966885   9.700698   4.109527
    17  C    9.426027  10.506333  10.175147   8.915685   3.573481
    18  C    2.509228   1.341153   2.338646   3.366629   8.815900
    19  C    3.701845   2.306829   2.681332   3.924227   9.549458
    20  C    4.115209   2.662461   2.314492   3.552140   9.108610
    21  C    3.585334   2.322380   1.342630   2.400492   7.823594
    22  C    7.273804   8.566337   8.581214   7.416607   3.808373
    23  C    7.442062   8.756212   8.868621   7.768482   4.562795
    24  C    3.683634   3.500475   2.372678   1.478960   4.968408
    25  C    4.501980   4.334840   3.250767   2.497517   4.818074
    26  H    4.685439   5.969810   6.041315   4.931768   3.449444
    27  H    4.209322   4.860230   4.260922   2.995587   2.645845
    28  H    2.523776   3.886832   4.214417   3.337958   4.834475
    29  H    9.323001   9.947558   9.162223   7.954843   2.817768
    30  H   11.289341  12.072979  11.402312  10.162047   4.621451
    31  H   11.467407  12.485891  12.056607  10.790624   5.211675
    32  H    9.769222  10.943704  10.733957   9.493091   4.443062
    33  H    2.813616   2.140301   3.347901   4.229590   9.428968
    34  H    4.620655   3.311945   3.784377   5.025171  10.644729
    35  H    5.217689   3.765718   3.317430   4.496831   9.921383
    36  H    4.462145   3.337131   2.144744   2.808156   7.701431
    37  H    6.637738   7.978928   8.100766   6.989533   4.190794
    38  H    8.285635   9.585543   9.594722   8.421369   4.465759
    39  H    7.861834   9.240207   9.492499   8.454724   5.625061
    40  H    8.281914   9.535193   9.553976   8.426736   4.676268
    41  H    6.581515   7.868847   8.007761   6.953807   4.411649
    42  H    4.074253   4.174564   3.206677   2.146914   4.223804
    43  H    4.338378   3.839456   2.562551   2.152955   5.784593
    44  H    4.371308   4.509374   3.679326   2.769872   4.257661
    45  H    5.546038   5.376708   4.219592   3.464341   4.647254
    46  H    4.670909   4.223407   3.130493   2.795602   5.872826
                   11         12         13         14         15
    11  C    0.000000
    12  C    1.338315   0.000000
    13  N    2.177576   1.305250   0.000000
    14  C    1.340994   2.340566   3.444881   0.000000
    15  C    2.306027   2.685200   3.977300   1.343198   0.000000
    16  C    2.659932   2.317773   3.571795   2.330396   1.343431
    17  C    2.316593   1.342554   2.395081   2.706587   2.334757
    18  C   10.232508  10.507297   9.488949  11.292407  12.512833
    19  C   10.996201  11.398020  10.459455  11.966907  13.234363
    20  C   10.567528  11.116204  10.294948  11.429670  12.735355
    21  C    9.281668   9.884431   9.123859  10.112326  11.425239
    22  C    3.641970   2.504958   1.520076   4.827047   5.111420
    23  C    4.426387   3.351458   2.510032   5.550931   5.780769
    24  C    6.416479   7.129999   6.528829   7.198605   8.518134
    25  C    6.195163   7.009357   6.546477   6.855675   8.172207
    26  H    4.255539   3.840902   2.579945   5.592679   6.408950
    27  H    4.096664   4.645020   3.995661   5.097294   6.338970
    28  H    5.997560   5.872907   4.689404   7.271823   8.273258
    29  H    2.140035   3.348646   4.317098   1.103518   2.118823
    30  H    3.311403   3.788147   5.079266   2.120028   1.102974
    31  H    3.763058   3.319697   4.500627   3.328092   2.118263
    32  H    3.328155   2.137393   2.752963   3.807005   3.324587
    33  H   10.805958  10.959482   9.865000  11.930220  13.105079
    34  H   12.088792  12.468684  11.506857  13.066884  14.331534
    35  H   11.376399  12.000536  11.236721  12.165450  13.488795
    36  H    9.139777   9.875646   9.241909   9.846978  11.181752
    37  H    4.312864   3.333669   2.182894   5.564776   5.971600
    38  H    3.989788   2.707618   2.178056   4.998888   5.017168
    39  H    5.477015   4.328739   3.487011   6.583502   6.716371
    40  H    4.271604   3.199371   2.772954   5.212086   5.270564
    41  H    4.587716   3.762994   2.782327   5.775888   6.213689
    42  H    5.650249   6.370940   5.816084   6.435831   7.742289
    43  H    7.200428   7.998745   7.469308   7.872477   9.205905
    44  H    5.599802   6.304786   5.793412   6.353908   7.622900
    45  H    5.927848   6.909284   6.648538   6.389410   7.715452
    46  H    7.226093   8.022776   7.534882   7.860413   9.164496
                   16         17         18         19         20
    16  C    0.000000
    17  C    1.343667   0.000000
    18  C   12.746996  11.812644   0.000000
    19  C   13.578935  12.725097   1.343194   0.000000
    20  C   13.203056  12.457101   2.331156   1.343450   0.000000
    21  C   11.928593  11.226438   2.709898   2.336023   1.343841
    22  C    4.371290   3.033096   9.774100  10.869468  10.885730
    23  C    5.001229   3.731991   9.902056  11.029485  11.123411
    24  C    9.075024   8.463282   4.688230   4.986282   4.267631
    25  C    8.811535   8.303430   5.457568   5.682639   4.902689
    26  H    6.144379   4.964123   7.180350   8.274112   8.329500
    27  H    6.711654   5.986473   6.199368   6.904735   6.497914
    28  H    8.188903   7.081876   5.031823   6.186921   6.400443
    29  H    3.328780   3.810042  11.275375  11.836595  11.186625
    30  H    2.120526   3.332669  13.410830  14.073672  13.505626
    31  H    1.103139   2.119386  13.807058  14.659034  14.299169
    32  H    2.109739   1.100739  12.218471  13.207419  13.038659
    33  H   13.240327  12.231826   1.103540   2.118138   3.328881
    34  H   14.662493  13.791007   2.119830   1.103077   2.120233
    35  H   14.028282  13.342068   3.328250   2.117615   1.103283
    36  H   11.799261  11.208883   3.809760   3.322027   2.104833
    37  H    5.307459   3.989674   9.143461  10.282723  10.382209
    38  H    4.066429   2.760547  10.789435  11.889639  11.901900
    39  H    5.813840   4.539708  10.311329  11.502762  11.711254
    40  H    4.438138   3.305815  10.704470  11.782432  11.801984
    41  H    5.630118   4.415089   8.991997  10.109436  10.221996
    42  H    8.290039   7.692297   5.421248   5.832234   5.182492
    43  H    9.850735   9.316708   4.844027   4.871495   3.938970
    44  H    8.159948   7.584203   5.691083   6.118893   5.534006
    45  H    8.498380   8.152496   6.485743   6.617704   5.714383
    46  H    9.811204   9.305345   5.155325   5.194341   4.346878
                   21         22         23         24         25
    21  C    0.000000
    22  C    9.815431   0.000000
    23  C   10.116546   1.532529   0.000000
    24  C    2.933782   7.462788   7.937385   0.000000
    25  C    3.629802   7.589568   7.859218   1.533744   0.000000
    26  H    7.313584   2.597315   3.058694   5.228168   5.545024
    27  H    5.243583   4.993998   5.537240   2.537795   2.759436
    28  H    5.549822   4.758854   4.988406   4.175280   4.763375
    29  H    9.850835   5.773237   6.479089   6.938249   6.513437
    30  H   12.180234   6.200262   6.832720   9.261689   8.850688
    31  H   13.028204   5.071556   5.607435  10.177931   9.902691
    32  H   11.851971   2.797365   3.377857   9.180667   9.078140
    33  H    3.813348   9.986650  10.042003   5.632209   6.392165
    34  H    3.333446  11.862840  11.984169   6.077389   6.736481
    35  H    2.119440  11.891993  12.142296   4.989093   5.515114
    36  H    1.100431  10.081939  10.442078   2.755636   3.291727
    37  H    9.372365   1.113139   2.191268   7.188626   7.519624
    38  H   10.821470   1.113521   2.177123   8.414866   8.575316
    39  H   10.778971   2.195538   1.114223   8.763556   8.761484
    40  H   10.752557   2.192010   1.114096   8.460468   8.212534
    41  H    9.249926   2.196846   1.113680   7.208210   7.067738
    42  H    3.873315   6.805532   7.460192   1.109881   2.218113
    43  H    2.632090   8.445392   8.996215   1.113555   2.162077
    44  H    4.323245   6.781233   6.911770   2.206434   1.112750
    45  H    4.431766   7.849094   8.202878   2.196282   1.114201
    46  H    3.209971   8.516602   8.664692   2.192295   1.114115
                   26         27         28         29         30
    26  H    0.000000
    27  H    3.048579   0.000000
    28  H    2.191311   3.037804   0.000000
    29  H    6.190756   5.129318   7.641359   0.000000
    30  H    7.489375   7.216531   9.307452   2.438073   0.000000
    31  H    7.077226   7.805653   9.172853   4.231537   2.437865
    32  H    5.141501   6.658931   7.325208   4.910336   4.225600
    33  H    7.430674   6.875055   5.240383  11.995565  14.044915
    34  H    9.266072   8.000655   7.138544  12.937352  15.174049
    35  H    9.357645   7.358699   7.473937  11.844127  14.209117
    36  H    7.683608   5.259878   6.133709   9.472441  11.860543
    37  H    2.140432   4.860700   4.134457   6.435120   7.064745
    38  H    3.633173   5.936473   5.772124   6.027501   6.053586
    39  H    3.689019   6.437032   5.437971   7.543219   7.751361
    40  H    3.932496   6.021804   5.878093   6.167624   6.255735
    41  H    2.573516   4.935207   4.229079   6.581600   7.268092
    42  H    4.728594   1.983426   4.021894   6.209634   8.495774
    43  H    6.247425   3.521982   5.148329   7.500712   9.879027
    44  H    4.803862   2.331890   4.207148   6.143367   8.362438
    45  H    6.059082   3.101300   5.592979   5.892403   8.286864
    46  H    6.393836   3.791766   5.376682   7.487603   9.816391
                   31         32         33         34         35
    31  H    0.000000
    32  H    2.424068   0.000000
    33  H   14.275129  12.549315   0.000000
    34  H   15.739213  14.249906   2.436587   0.000000
    35  H   15.129099  13.967404   4.230451   2.436146   0.000000
    36  H   12.902166  11.917706   4.913019   4.220906   2.416296
    37  H    6.028023   3.771354   9.294281  11.247793  11.414618
    38  H    4.581041   2.208752  10.985950  12.881315  12.904135
    39  H    6.290668   3.966117  10.337357  12.408885  12.759368
    40  H    4.946883   2.933807  10.896323  12.753981  12.788310
    41  H    6.347771   4.271128   9.135020  11.051621  11.239291
    42  H    9.388586   8.423845   6.290473   6.924079   5.915246
    43  H   10.951252  10.076085   5.870797   5.910565   4.477883
    44  H    9.237574   8.306829   6.504370   7.172261   6.252191
    45  H    9.577534   9.021073   7.450948   7.656422   6.199170
    46  H   10.892951  10.062308   6.122698   6.179911   4.850487
                   36         37         38         39         40
    36  H    0.000000
    37  H    9.721238   0.000000
    38  H   11.065782   1.752007   0.000000
    39  H   11.188131   2.530354   2.517559   0.000000
    40  H   11.001077   3.120000   2.547259   1.801352   0.000000
    41  H    9.608782   2.575587   3.113610   1.800051   1.800114
    42  H    3.696070   6.525352   7.685590   8.308709   7.990766
    43  H    2.139389   8.147609   9.357370   9.826147   9.514909
    44  H    4.193327   6.780783   7.800646   7.813385   7.232230
    45  H    3.868619   7.884685   8.765936   9.177694   8.448837
    46  H    2.830471   8.434103   9.535127   9.529474   9.011556
                   41         42         43         44         45
    41  H    0.000000
    42  H    6.855213   0.000000
    43  H    8.297355   1.701975   0.000000
    44  H    6.079085   2.658491   3.108704   0.000000
    45  H    7.502542   2.530290   2.509069   1.799441   0.000000
    46  H    7.797866   3.133197   2.517094   1.792224   1.800445
                   46
    46  H    0.000000
 Stoichiometry    C21H21N2S2(1+)
 Framework group  C1[X(C21H21N2S2)]
 Deg. of freedom   132
 Full point group                 C1      NOp   1
 Largest Abelian subgroup         C1      NOp   1
 Largest concise Abelian subgroup C1      NOp   1
                         Standard orientation:                         
 ---------------------------------------------------------------------
 Center     Atomic      Atomic             Coordinates (Angstroms)
 Number     Number       Type             X           Y           Z
 ---------------------------------------------------------------------
      1          6           0       -1.153453    0.931026   -0.199077
      2          6           0        0.054774    0.329628   -0.172944
      3          6           0        1.214346    1.014780   -0.179734
      4          6           0        2.497561    0.587501   -0.159602
      5          6           0       -2.370654    0.348610   -0.181034
      6         16           0        3.532022    1.641081   -0.133476
      7          6           0        4.692995    0.755398   -0.059015
      8          6           0        4.331043   -0.534214   -0.090852
      9          7           0        3.064306   -0.551063   -0.167532
     10         16           0       -2.546048   -1.113188   -0.117764
     11          6           0       -4.005567   -1.106290   -0.087628
     12          6           0       -4.479232    0.144165   -0.143244
     13          7           0       -3.504067    1.009278   -0.208917
     14          6           0       -4.822031   -2.167639   -0.015583
     15          6           0       -6.148060   -1.954382    0.003073
     16          6           0       -6.634454   -0.703103   -0.047198
     17          6           0       -5.805411    0.351846   -0.119381
     18          6           0        5.981467    1.118933    0.020826
     19          6           0        6.916720    0.156285    0.073536
     20          6           0        6.561094   -1.138897    0.043703
     21          6           0        5.267846   -1.494625   -0.039219
     22          6           0       -3.687259    2.516083   -0.290215
     23          6           0       -3.650775    3.140529    1.108849
     24          6           0        2.364992   -1.850052   -0.271998
     25          6           0        1.938636   -2.384481    1.100947
     26          1           0       -1.135933    2.032709   -0.234249
     27          1           0        0.076423   -0.762503   -0.130248
     28          1           0        1.053536    2.113154   -0.194284
     29          1           0       -4.434054   -3.199742    0.029017
     30          1           0       -6.840646   -2.810698    0.063056
     31          1           0       -7.725389   -0.540803   -0.026336
     32          1           0       -6.233294    1.365492   -0.152006
     33          1           0        6.288117    2.178773    0.043350
     34          1           0        7.982903    0.430909    0.141471
     35          1           0        7.340401   -1.918440    0.090884
     36          1           0        5.016822   -2.565975   -0.051137
     37          1           0       -2.918375    2.977243   -0.949933
     38          1           0       -4.650392    2.768070   -0.789019
     39          1           0       -3.789576    4.244957    1.059197
     40          1           0       -4.459860    2.722650    1.750697
     41          1           0       -2.678394    2.942105    1.614209
     42          1           0        1.527583   -1.798876   -0.998607
     43          1           0        3.001531   -2.617834   -0.767308
     44          1           0        1.290032   -1.662879    1.645755
     45          1           0        1.375791   -3.340935    1.001737
     46          1           0        2.828039   -2.577786    1.743480
 ---------------------------------------------------------------------
 Rotational constants (GHZ):      0.5951787      0.0781983      0.0701304
 Standard basis: 6-31G(d) (6D, 7F)
 There are   425 symmetry adapted basis functions of A   symmetry.
 Integral buffers will be    262144 words long.
 Raffenetti 2 integral format.
 Two-electron integral symmetry is turned on.
   425 basis functions,   832 primitive gaussians,   425 cartesian basis functions
    96 alpha electrons       96 beta electrons
       nuclear repulsion energy      2405.4487146260 Hartrees.
 NAtoms=   46 NActive=   46 NUniq=   46 SFac= 7.50D-01 NAtFMM=   80 NAOKFM=F Big=F
 One-electron integrals computed using PRISM.
 NBasis=   425 RedAO= T  NBF=   425
 NBsUse=   425 1.00D-06 NBFU=   425
 Harris functional with IExCor=  402 diagonalized for initial guess.
 ExpMin= 1.17D-01 ExpMax= 2.19D+04 ExpMxC= 3.30D+03 IAcc=1 IRadAn=         1 AccDes= 0.00D+00
 HarFok:  IExCor=  402 AccDes= 0.00D+00 IRadAn=         1 IDoV= 1
 ScaDFX=  1.000000  1.000000  1.000000  1.000000
 FoFCou: FMM=F IPFlag=           0 FMFlag=      100000 FMFlg1=           0
         NFxFlg=           0 DoJE=T BraDBF=F KetDBF=T FulRan=T
         Omega=  0.000000  0.000000  1.000000  0.000000  0.000000 ICntrl=     500 IOpCl=  0
         NMat0=    1 NMatS0=    1 NMatT0=    0 NMatD0=    1 NMtDS0=    0 NMtDT0=    0
         I1Cent=           4 NGrid=           0.
 Petite list used in FoFCou.
 Initial guess orbital symmetries:
       Occupied  (A) (A) (A) (A) (A) (A) (A) (A) (A) (A) (A) (A)
                 (A) (A) (A) (A) (A) (A) (A) (A) (A) (A) (A) (A)
                 (A) (A) (A) (A) (A) (A) (A) (A) (A) (A) (A) (A)
                 (A) (A) (A) (A) (A) (A) (A) (A) (A) (A) (A) (A)
                 (A) (A) (A) (A) (A) (A) (A) (A) (A) (A) (A) (A)
                 (A) (A) (A) (A) (A) (A) (A) (A) (A) (A) (A) (A)
                 (A) (A) (A) (A) (A) (A) (A) (A) (A) (A) (A) (A)
                 (A) (A) (A) (A) (A) (A) (A) (A) (A) (A) (A) (A)
       Virtual   (A) (A) (A) (A) (A) (A) (A) (A) (A) (A) (A) (A)
                 (A) (A) (A) (A) (A) (A) (A) (A) (A) (A) (A) (A)
                 (A) (A) (A) (A) (A) (A) (A) (A) (A) (A) (A) (A)
                 (A) (A) (A) (A) (A) (A) (A) (A) (A) (A) (A) (A)
                 (A) (A) (A) (A) (A) (A) (A) (A) (A) (A) (A) (A)
                 (A) (A) (A) (A) (A) (A) (A) (A) (A) (A) (A) (A)
                 (A) (A) (A) (A) (A) (A) (A) (A) (A) (A) (A) (A)
                 (A) (A) (A) (A) (A) (A) (A) (A) (A) (A) (A) (A)
                 (A) (A) (A) (A) (A) (A) (A) (A) (A) (A) (A) (A)
                 (A) (A) (A) (A) (A) (A) (A) (A) (A) (A) (A) (A)
                 (A) (A) (A) (A) (A) (A) (A) (A) (A) (A) (A) (A)
                 (A) (A) (A) (A) (A) (A) (A) (A) (A) (A) (A) (A)
                 (A) (A) (A) (A) (A) (A) (A) (A) (A) (A) (A) (A)
                 (A) (A) (A) (A) (A) (A) (A) (A) (A) (A) (A) (A)
                 (A) (A) (A) (A) (A) (A) (A) (A) (A) (A) (A) (A)
                 (A) (A) (A) (A) (A) (A) (A) (A) (A) (A) (A) (A)
                 (A) (A) (A) (A) (A) (A) (A) (A) (A) (A) (A) (A)
                 (A) (A) (A) (A) (A) (A) (A) (A) (A) (A) (A) (A)
                 (A) (A) (A) (A) (A) (A) (A) (A) (A) (A) (A) (A)
                 (A) (A) (A) (A) (A) (A) (A) (A) (A) (A) (A) (A)
                 (A) (A) (A) (A) (A) (A) (A) (A) (A) (A) (A) (A)
                 (A) (A) (A) (A) (A) (A) (A) (A) (A) (A) (A) (A)
                 (A) (A) (A) (A) (A) (A) (A) (A) (A) (A) (A) (A)
                 (A) (A) (A) (A) (A) (A) (A) (A) (A) (A) (A) (A)
                 (A) (A) (A) (A) (A) (A) (A) (A) (A) (A) (A) (A)
                 (A) (A) (A) (A) (A) (A) (A) (A) (A) (A) (A) (A)
                 (A) (A) (A) (A) (A) (A) (A) (A) (A) (A) (A) (A)
                 (A) (A) (A) (A) (A)
 The electronic state of the initial guess is 1-A.
 Requested convergence on RMS density matrix=1.00D-08 within 128 cycles.
 Requested convergence on MAX density matrix=1.00D-06.
 Requested convergence on             energy=1.00D-06.
 No special actions if energy rises.
 Integral accuracy reduced to 1.0D-05 until final iterations.
 Initial convergence to 1.0D-05 achieved.  Increase integral accuracy.
 SCF Done:  E(RB3LYP) =  -1718.22211489     A.U. after   16 cycles
             Convg  =    0.3682D-08             -V/T =  2.0030

 **********************************************************************

            Population analysis using the SCF density.

 **********************************************************************

 Orbital symmetries:
       Occupied  (A) (A) (A) (A) (A) (A) (A) (A) (A) (A) (A) (A)
                 (A) (A) (A) (A) (A) (A) (A) (A) (A) (A) (A) (A)
                 (A) (A) (A) (A) (A) (A) (A) (A) (A) (A) (A) (A)
                 (A) (A) (A) (A) (A) (A) (A) (A) (A) (A) (A) (A)
                 (A) (A) (A) (A) (A) (A) (A) (A) (A) (A) (A) (A)
                 (A) (A) (A) (A) (A) (A) (A) (A) (A) (A) (A) (A)
                 (A) (A) (A) (A) (A) (A) (A) (A) (A) (A) (A) (A)
                 (A) (A) (A) (A) (A) (A) (A) (A) (A) (A) (A) (A)
       Virtual   (A) (A) (A) (A) (A) (A) (A) (A) (A) (A) (A) (A)
                 (A) (A) (A) (A) (A) (A) (A) (A) (A) (A) (A) (A)
                 (A) (A) (A) (A) (A) (A) (A) (A) (A) (A) (A) (A)
                 (A) (A) (A) (A) (A) (A) (A) (A) (A) (A) (A) (A)
                 (A) (A) (A) (A) (A) (A) (A) (A) (A) (A) (A) (A)
                 (A) (A) (A) (A) (A) (A) (A) (A) (A) (A) (A) (A)
                 (A) (A) (A) (A) (A) (A) (A) (A) (A) (A) (A) (A)
                 (A) (A) (A) (A) (A) (A) (A) (A) (A) (A) (A) (A)
                 (A) (A) (A) (A) (A) (A) (A) (A) (A) (A) (A) (A)
                 (A) (A) (A) (A) (A) (A) (A) (A) (A) (A) (A) (A)
                 (A) (A) (A) (A) (A) (A) (A) (A) (A) (A) (A) (A)
                 (A) (A) (A) (A) (A) (A) (A) (A) (A) (A) (A) (A)
                 (A) (A) (A) (A) (A) (A) (A) (A) (A) (A) (A) (A)
                 (A) (A) (A) (A) (A) (A) (A) (A) (A) (A) (A) (A)
                 (A) (A) (A) (A) (A) (A) (A) (A) (A) (A) (A) (A)
                 (A) (A) (A) (A) (A) (A) (A) (A) (A) (A) (A) (A)
                 (A) (A) (A) (A) (A) (A) (A) (A) (A) (A) (A) (A)
                 (A) (A) (A) (A) (A) (A) (A) (A) (A) (A) (A) (A)
                 (A) (A) (A) (A) (A) (A) (A) (A) (A) (A) (A) (A)
                 (A) (A) (A) (A) (A) (A) (A) (A) (A) (A) (A) (A)
                 (A) (A) (A) (A) (A) (A) (A) (A) (A) (A) (A) (A)
                 (A) (A) (A) (A) (A) (A) (A) (A) (A) (A) (A) (A)
                 (A) (A) (A) (A) (A) (A) (A) (A) (A) (A) (A) (A)
                 (A) (A) (A) (A) (A) (A) (A) (A) (A) (A) (A) (A)
                 (A) (A) (A) (A) (A) (A) (A) (A) (A) (A) (A) (A)
                 (A) (A) (A) (A) (A) (A) (A) (A) (A) (A) (A) (A)
                 (A) (A) (A) (A) (A) (A) (A) (A) (A) (A) (A) (A)
                 (A) (A) (A) (A) (A)
 The electronic state is 1-A.
 Alpha  occ. eigenvalues --  -89.01023 -89.00900 -14.52193 -14.51517 -10.36212
 Alpha  occ. eigenvalues --  -10.35974 -10.35815 -10.35742 -10.33527 -10.33220
 Alpha  occ. eigenvalues --  -10.30718 -10.30383 -10.30366 -10.30360 -10.29722
 Alpha  occ. eigenvalues --  -10.29404 -10.29337 -10.29199 -10.28982 -10.28813
 Alpha  occ. eigenvalues --  -10.28663 -10.28237 -10.28122 -10.28058 -10.27866
 Alpha  occ. eigenvalues --   -8.09196  -8.09060  -6.05485  -6.05344  -6.05029
 Alpha  occ. eigenvalues --   -6.04876  -6.04731  -6.04612  -1.21647  -1.19048
 Alpha  occ. eigenvalues --   -1.03727  -1.03165  -1.00015  -0.99192  -0.94582
 Alpha  occ. eigenvalues --   -0.91862  -0.89551  -0.89151  -0.87560  -0.86552
 Alpha  occ. eigenvalues --   -0.85925  -0.81808  -0.78191  -0.77463  -0.77082
 Alpha  occ. eigenvalues --   -0.76869  -0.74964  -0.72122  -0.71165  -0.70637
 Alpha  occ. eigenvalues --   -0.67883  -0.65422  -0.64612  -0.63760  -0.63099
 Alpha  occ. eigenvalues --   -0.62142  -0.61829  -0.61446  -0.58103  -0.57572
 Alpha  occ. eigenvalues --   -0.57071  -0.56648  -0.56458  -0.55571  -0.54172
 Alpha  occ. eigenvalues --   -0.53887  -0.53207  -0.52348  -0.52211  -0.51608
 Alpha  occ. eigenvalues --   -0.50109  -0.50039  -0.49589  -0.48933  -0.48514
 Alpha  occ. eigenvalues --   -0.48417  -0.47300  -0.46932  -0.46669  -0.46396
 Alpha  occ. eigenvalues --   -0.46089  -0.45244  -0.45171  -0.44927  -0.44835
 Alpha  occ. eigenvalues --   -0.43231  -0.39269  -0.35593  -0.34834  -0.34534
 Alpha  occ. eigenvalues --   -0.27476
 Alpha virt. eigenvalues --   -0.16757  -0.10724  -0.10148  -0.09018  -0.08089
 Alpha virt. eigenvalues --   -0.06719  -0.05712  -0.04750  -0.03354  -0.02511
 Alpha virt. eigenvalues --   -0.01420  -0.01028  -0.00389   0.00398   0.01071
 Alpha virt. eigenvalues --    0.01524   0.01672   0.02115   0.02683   0.03280
 Alpha virt. eigenvalues --    0.04007   0.04407   0.04591   0.05142   0.05386
 Alpha virt. eigenvalues --    0.06120   0.06462   0.06784   0.07584   0.07668
 Alpha virt. eigenvalues --    0.08634   0.09311   0.10091   0.10686   0.10859
 Alpha virt. eigenvalues --    0.11147   0.11675   0.11956   0.13695   0.15402
 Alpha virt. eigenvalues --    0.15909   0.17127   0.17782   0.19189   0.20931
 Alpha virt. eigenvalues --    0.21009   0.22785   0.23207   0.23598   0.24219
 Alpha virt. eigenvalues --    0.24966   0.26200   0.27382   0.28426   0.29199
 Alpha virt. eigenvalues --    0.30118   0.32097   0.32224   0.33821   0.34512
 Alpha virt. eigenvalues --    0.37385   0.37568   0.39119   0.39788   0.40285
 Alpha virt. eigenvalues --    0.40906   0.41512   0.42207   0.42536   0.43386
 Alpha virt. eigenvalues --    0.43977   0.44659   0.44978   0.45717   0.46224
 Alpha virt. eigenvalues --    0.46631   0.47844   0.48327   0.48831   0.49059
 Alpha virt. eigenvalues --    0.49816   0.50008   0.50204   0.50889   0.51209
 Alpha virt. eigenvalues --    0.51488   0.51640   0.51867   0.52049   0.52624
 Alpha virt. eigenvalues --    0.52638   0.52959   0.53640   0.54074   0.54660
 Alpha virt. eigenvalues --    0.55790   0.56709   0.57060   0.57689   0.58373
 Alpha virt. eigenvalues --    0.59011   0.60831   0.61122   0.62622   0.62876
 Alpha virt. eigenvalues --    0.63549   0.64258   0.65426   0.67329   0.69062
 Alpha virt. eigenvalues --    0.69329   0.69627   0.70490   0.70723   0.70922
 Alpha virt. eigenvalues --    0.71414   0.72394   0.72645   0.72956   0.73351
 Alpha virt. eigenvalues --    0.73935   0.74113   0.74708   0.76169   0.76325
 Alpha virt. eigenvalues --    0.77160   0.77502   0.77737   0.77962   0.79505
 Alpha virt. eigenvalues --    0.80277   0.80484   0.81944   0.82650   0.82830
 Alpha virt. eigenvalues --    0.83793   0.84378   0.85786   0.86011   0.86086
 Alpha virt. eigenvalues --    0.86497   0.87281   0.87821   0.88355   0.89930
 Alpha virt. eigenvalues --    0.90939   0.91205   0.91661   0.92743   0.92955
 Alpha virt. eigenvalues --    0.94014   0.94766   0.96261   0.97048   0.98005
 Alpha virt. eigenvalues --    1.01584   1.02833   1.03086   1.05667   1.06931
 Alpha virt. eigenvalues --    1.08263   1.09179   1.10413   1.11630   1.12158
 Alpha virt. eigenvalues --    1.12220   1.13257   1.14609   1.15460   1.16713
 Alpha virt. eigenvalues --    1.18949   1.19870   1.20973   1.22010   1.22292
 Alpha virt. eigenvalues --    1.24457   1.26729   1.28212   1.29032   1.30214
 Alpha virt. eigenvalues --    1.31039   1.32180   1.33360   1.33531   1.34441
 Alpha virt. eigenvalues --    1.34913   1.35924   1.37078   1.38269   1.38966
 Alpha virt. eigenvalues --    1.40260   1.40554   1.44500   1.45360   1.45989
 Alpha virt. eigenvalues --    1.46807   1.48266   1.51605   1.52168   1.55008
 Alpha virt. eigenvalues --    1.55563   1.56647   1.59220   1.60231   1.62902
 Alpha virt. eigenvalues --    1.63747   1.64364   1.67549   1.68140   1.68320
 Alpha virt. eigenvalues --    1.70119   1.76095   1.77304   1.77770   1.78679
 Alpha virt. eigenvalues --    1.78985   1.79828   1.80143   1.81824   1.82460
 Alpha virt. eigenvalues --    1.83698   1.85339   1.85571   1.86267   1.87789
 Alpha virt. eigenvalues --    1.88601   1.89770   1.89975   1.92630   1.93874
 Alpha virt. eigenvalues --    1.95024   1.98752   1.98910   1.99979   2.01483
 Alpha virt. eigenvalues --    2.02973   2.03288   2.03776   2.06284   2.07856
 Alpha virt. eigenvalues --    2.08775   2.09271   2.10404   2.11548   2.12566
 Alpha virt. eigenvalues --    2.13614   2.14407   2.14662   2.15683   2.16165
 Alpha virt. eigenvalues --    2.16402   2.17980   2.18988   2.19530   2.20532
 Alpha virt. eigenvalues --    2.21702   2.22077   2.22715   2.23264   2.23787
 Alpha virt. eigenvalues --    2.24980   2.25071   2.27575   2.30265   2.35707
 Alpha virt. eigenvalues --    2.36318   2.38280   2.41929   2.42818   2.46006
 Alpha virt. eigenvalues --    2.46746   2.47946   2.48716   2.50506   2.52123
 Alpha virt. eigenvalues --    2.52427   2.54738   2.55078   2.56869   2.59060
 Alpha virt. eigenvalues --    2.61474   2.65251   2.66995   2.68217   2.68559
 Alpha virt. eigenvalues --    2.70001   2.70838   2.71704   2.73496   2.76799
 Alpha virt. eigenvalues --    2.78737   2.82837   2.84838   2.87913   2.90742
 Alpha virt. eigenvalues --    2.91005   3.01155   3.04057   3.13624   3.21977
 Alpha virt. eigenvalues --    3.27099   3.28650   3.51713   3.54557   3.89237
 Alpha virt. eigenvalues --    3.89636   3.98313   4.00740   4.02516   4.02908
 Alpha virt. eigenvalues --    4.04555   4.04770   4.05852   4.08167   4.12593
 Alpha virt. eigenvalues --    4.13827   4.21179   4.23244   4.24238   4.30190
 Alpha virt. eigenvalues --    4.31432   4.33239   4.35341   4.44780   4.50219
 Alpha virt. eigenvalues --    4.56056   4.60531   4.73549   4.74987
          Condensed to atoms (all electrons):
              1          2          3          4          5          6
     1  C    5.210616   0.498328   0.004934   0.004375   0.388869  -0.000139
     2  C    0.498328   4.856540   0.487284   0.000041   0.001836   0.007292
     3  C    0.004934   0.487284   5.163273   0.443543   0.004411  -0.078474
     4  C    0.004375   0.000041   0.443543   4.788791  -0.000504   0.346225
     5  C    0.388869   0.001836   0.004411  -0.000504   4.827242   0.000017
     6  S   -0.000139   0.007292  -0.078474   0.346225   0.000017  15.439991
     7  C    0.000000   0.000141   0.001998  -0.095079   0.000000   0.353707
     8  C    0.000018  -0.001155   0.006376  -0.061847   0.000000  -0.103980
     9  N    0.000322  -0.016603  -0.048206   0.393745   0.000004  -0.121277
    10  S   -0.136498  -0.011533   0.001941   0.000042   0.415844  -0.000004
    11  C    0.004651   0.000378   0.000002   0.000000  -0.075346   0.000000
    12  C    0.012635   0.000357  -0.000010   0.000000  -0.059939   0.000000
    13  N   -0.028617   0.005752  -0.000175   0.000000   0.354499   0.000000
    14  C   -0.000666   0.000010   0.000000   0.000000   0.000578   0.000000
    15  C    0.000024   0.000000   0.000000   0.000000   0.000158   0.000000
    16  C    0.000002   0.000000   0.000000   0.000000   0.000431   0.000000
    17  C   -0.000806   0.000009   0.000000   0.000000   0.004852   0.000000
    18  C    0.000000   0.000013  -0.000204   0.003383   0.000000  -0.117813
    19  C    0.000000   0.000000   0.000009  -0.000066   0.000000   0.008197
    20  C    0.000000   0.000000   0.000007   0.000490   0.000000   0.000601
    21  C    0.000000  -0.000015  -0.000727   0.003056   0.000000   0.017129
    22  C   -0.005241   0.000025   0.000000   0.000000  -0.038677   0.000000
    23  C   -0.001425   0.000013   0.000002   0.000000  -0.000089   0.000000
    24  C    0.000295   0.001785  -0.011759  -0.042269  -0.000005   0.010502
    25  C    0.000130  -0.003022   0.000120   0.001494  -0.000004  -0.000182
    26  H    0.359808  -0.056920  -0.009591   0.001118  -0.042726  -0.000016
    27  H   -0.056943   0.360352  -0.061120  -0.008025  -0.012188   0.000194
    28  H   -0.010316  -0.051582   0.365426  -0.043780   0.000921  -0.005955
    29  H   -0.000006   0.000001   0.000000   0.000000   0.000044   0.000000
    30  H    0.000000   0.000000   0.000000   0.000000   0.000001   0.000000
    31  H    0.000000   0.000000   0.000000   0.000000   0.000003   0.000000
    32  H    0.000003   0.000000   0.000000   0.000000  -0.000313   0.000000
    33  H    0.000000   0.000000   0.000006   0.000000   0.000000  -0.002154
    34  H    0.000000   0.000000   0.000000   0.000004   0.000000  -0.000298
    35  H    0.000000   0.000000   0.000000   0.000001   0.000000   0.000035
    36  H    0.000000   0.000000   0.000004  -0.000422   0.000000  -0.000536
    37  H    0.003190   0.000225  -0.000028   0.000000  -0.004901   0.000000
    38  H    0.000145  -0.000007   0.000000   0.000000   0.003432   0.000000
    39  H   -0.000030   0.000000   0.000000   0.000000  -0.000068   0.000000
    40  H    0.000017   0.000001   0.000000   0.000000  -0.000069   0.000000
    41  H    0.002242  -0.000071  -0.000030   0.000000   0.002357   0.000000
    42  H    0.000297   0.000864   0.000108  -0.001031  -0.000040  -0.000124
    43  H   -0.000007   0.000146   0.000313   0.003206   0.000000  -0.000484
    44  H   -0.000072   0.002270   0.000892   0.002288  -0.000039  -0.000167
    45  H    0.000000   0.000026  -0.000041  -0.000117  -0.000002   0.000002
    46  H   -0.000001   0.000052   0.000039  -0.000185   0.000000   0.000046
              7          8          9         10         11         12
     1  C    0.000000   0.000018   0.000322  -0.136498   0.004651   0.012635
     2  C    0.000141  -0.001155  -0.016603  -0.011533   0.000378   0.000357
     3  C    0.001998   0.006376  -0.048206   0.001941   0.000002  -0.000010
     4  C   -0.095079  -0.061847   0.393745   0.000042   0.000000   0.000000
     5  C    0.000000   0.000000   0.000004   0.415844  -0.075346  -0.059939
     6  S    0.353707  -0.103980  -0.121277  -0.000004   0.000000   0.000000
     7  C    5.112405   0.463426  -0.055263   0.000000   0.000000   0.000000
     8  C    0.463426   4.655454   0.293314   0.000001   0.000000   0.000000
     9  N   -0.055263   0.293314   7.011538   0.000009   0.000000   0.000000
    10  S    0.000000   0.000001   0.000009  15.457854   0.326080  -0.102997
    11  C    0.000000   0.000000   0.000000   0.326080   5.091841   0.493413
    12  C    0.000000   0.000000   0.000000  -0.102997   0.493413   4.613783
    13  N    0.000000   0.000000   0.000000  -0.114845  -0.070613   0.286356
    14  C    0.000000   0.000000   0.000000  -0.125773   0.437659   0.037093
    15  C    0.000000   0.000000   0.000000   0.008624   0.004480  -0.061373
    16  C    0.000000   0.000000   0.000000   0.000664  -0.057815   0.020440
    17  C    0.000000   0.000000   0.000000   0.019986  -0.071325   0.472650
    18  C    0.448514   0.035737   0.016202   0.000000   0.000000   0.000000
    19  C   -0.000240  -0.062064  -0.000116   0.000000   0.000000   0.000000
    20  C   -0.055205   0.023630   0.007498   0.000000   0.000000   0.000000
    21  C   -0.069645   0.469824  -0.111942   0.000000   0.000000   0.000000
    22  C    0.000000   0.000000   0.000000   0.007650   0.007512  -0.043762
    23  C    0.000000   0.000000   0.000000  -0.000090  -0.000593  -0.000099
    24  C    0.011296  -0.055868   0.274040  -0.000179   0.000000   0.000000
    25  C   -0.000834  -0.001021  -0.052714   0.000075   0.000000   0.000000
    26  H    0.000001   0.000000  -0.000005   0.007486   0.000130  -0.000967
    27  H    0.000007  -0.000108  -0.000368   0.009916   0.000151  -0.000029
    28  H    0.000460   0.000199   0.005184   0.000069   0.000001   0.000001
    29  H    0.000000   0.000000   0.000000  -0.002516  -0.058157   0.004814
    30  H    0.000000   0.000000   0.000000  -0.000312   0.004646   0.001498
    31  H    0.000000   0.000000   0.000000   0.000042   0.001347   0.003233
    32  H    0.000000   0.000000   0.000000  -0.000687   0.007304  -0.043528
    33  H   -0.055812   0.005172  -0.000184   0.000000   0.000000   0.000000
    34  H    0.004718   0.001426   0.000004   0.000000   0.000000   0.000000
    35  H    0.001357   0.003011  -0.000142   0.000000   0.000000   0.000000
    36  H    0.006762  -0.044689  -0.009047   0.000000   0.000000   0.000000
    37  H    0.000000   0.000000   0.000000  -0.000095  -0.000245   0.002961
    38  H    0.000000   0.000000   0.000000  -0.000283   0.000063  -0.005159
    39  H    0.000000   0.000000   0.000000  -0.000001   0.000009  -0.000054
    40  H    0.000000   0.000000   0.000000   0.000041  -0.000132   0.002479
    41  H    0.000000   0.000000   0.000000  -0.000104   0.000001  -0.000021
    42  H   -0.000343   0.003810  -0.033610   0.000173  -0.000001   0.000000
    43  H    0.000242  -0.007359  -0.028277   0.000003   0.000000   0.000000
    44  H   -0.000007   0.000130  -0.004563   0.000199   0.000000   0.000000
    45  H    0.000014  -0.000041   0.003610   0.000091   0.000000   0.000000
    46  H   -0.000189   0.002733  -0.004360   0.000000   0.000000   0.000000
             13         14         15         16         17         18
     1  C   -0.028617  -0.000666   0.000024   0.000002  -0.000806   0.000000
     2  C    0.005752   0.000010   0.000000   0.000000   0.000009   0.000013
     3  C   -0.000175   0.000000   0.000000   0.000000   0.000000  -0.000204
     4  C    0.000000   0.000000   0.000000   0.000000   0.000000   0.003383
     5  C    0.354499   0.000578   0.000158   0.000431   0.004852   0.000000
     6  S    0.000000   0.000000   0.000000   0.000000   0.000000  -0.117813
     7  C    0.000000   0.000000   0.000000   0.000000   0.000000   0.448514
     8  C    0.000000   0.000000   0.000000   0.000000   0.000000   0.035737
     9  N    0.000000   0.000000   0.000000   0.000000   0.000000   0.016202
    10  S   -0.114845  -0.125773   0.008624   0.000664   0.019986   0.000000
    11  C   -0.070613   0.437659   0.004480  -0.057815  -0.071325   0.000000
    12  C    0.286356   0.037093  -0.061373   0.020440   0.472650   0.000000
    13  N    7.056193   0.015316  -0.000280   0.007497  -0.103457   0.000000
    14  C    0.015316   5.081866   0.515765  -0.017225  -0.078322   0.000000
    15  C   -0.000280   0.515765   4.817870   0.559906  -0.030719   0.000000
    16  C    0.007497  -0.017225   0.559906   4.814941   0.531095   0.000000
    17  C   -0.103457  -0.078322  -0.030719   0.531095   5.085821   0.000000
    18  C    0.000000   0.000000   0.000000   0.000000   0.000000   5.051657
    19  C    0.000000   0.000000   0.000000   0.000000   0.000000   0.521683
    20  C    0.000000   0.000000   0.000000   0.000000   0.000000  -0.017101
    21  C    0.000000   0.000000   0.000000   0.000000   0.000000  -0.079529
    22  C    0.262702  -0.000028  -0.000015   0.000237  -0.000687   0.000000
    23  C   -0.051561  -0.000003   0.000003  -0.000020  -0.000034   0.000000
    24  C    0.000000   0.000000   0.000000   0.000000   0.000000  -0.000189
    25  C    0.000000   0.000000   0.000000   0.000000   0.000000   0.000003
    26  H   -0.015746   0.000012   0.000000   0.000000  -0.000027   0.000000
    27  H    0.000197   0.000009   0.000000   0.000000   0.000000   0.000000
    28  H    0.000010   0.000000   0.000000   0.000000   0.000000  -0.000012
    29  H   -0.000131   0.367514  -0.036253   0.005171   0.000868   0.000000
    30  H    0.000006  -0.040276   0.360709  -0.038739   0.005524   0.000000
    31  H   -0.000144   0.005695  -0.038215   0.358606  -0.036936   0.000000
    32  H   -0.010033   0.001017   0.004956  -0.037135   0.348813   0.000000
    33  H    0.000000   0.000000   0.000000   0.000000   0.000000   0.366506
    34  H    0.000000   0.000000   0.000000   0.000000   0.000000  -0.039594
    35  H    0.000000   0.000000   0.000000   0.000000   0.000000   0.005596
    36  H    0.000000   0.000000   0.000000   0.000000   0.000000   0.000949
    37  H   -0.028216   0.000002   0.000000  -0.000006   0.000166   0.000000
    38  H   -0.027350   0.000004  -0.000007   0.000187   0.003860   0.000000
    39  H    0.003540   0.000000   0.000000   0.000000  -0.000060   0.000000
    40  H   -0.004472  -0.000007   0.000004  -0.000062   0.001376   0.000000
    41  H   -0.004830   0.000000   0.000000   0.000001   0.000009   0.000000
    42  H    0.000000   0.000000   0.000000   0.000000   0.000000   0.000006
    43  H    0.000000   0.000000   0.000000   0.000000   0.000000  -0.000006
    44  H    0.000000   0.000000   0.000000   0.000000   0.000000  -0.000001
    45  H    0.000000   0.000000   0.000000   0.000000   0.000000   0.000000
    46  H    0.000000   0.000000   0.000000   0.000000   0.000000  -0.000009
             19         20         21         22         23         24
     1  C    0.000000   0.000000   0.000000  -0.005241  -0.001425   0.000295
     2  C    0.000000   0.000000  -0.000015   0.000025   0.000013   0.001785
     3  C    0.000009   0.000007  -0.000727   0.000000   0.000002  -0.011759
     4  C   -0.000066   0.000490   0.003056   0.000000   0.000000  -0.042269
     5  C    0.000000   0.000000   0.000000  -0.038677  -0.000089  -0.000005
     6  S    0.008197   0.000601   0.017129   0.000000   0.000000   0.010502
     7  C   -0.000240  -0.055205  -0.069645   0.000000   0.000000   0.011296
     8  C   -0.062064   0.023630   0.469824   0.000000   0.000000  -0.055868
     9  N   -0.000116   0.007498  -0.111942   0.000000   0.000000   0.274040
    10  S    0.000000   0.000000   0.000000   0.007650  -0.000090  -0.000179
    11  C    0.000000   0.000000   0.000000   0.007512  -0.000593   0.000000
    12  C    0.000000   0.000000   0.000000  -0.043762  -0.000099   0.000000
    13  N    0.000000   0.000000   0.000000   0.262702  -0.051561   0.000000
    14  C    0.000000   0.000000   0.000000  -0.000028  -0.000003   0.000000
    15  C    0.000000   0.000000   0.000000  -0.000015   0.000003   0.000000
    16  C    0.000000   0.000000   0.000000   0.000237  -0.000020   0.000000
    17  C    0.000000   0.000000   0.000000  -0.000687  -0.000034   0.000000
    18  C    0.521683  -0.017101  -0.079529   0.000000   0.000000  -0.000189
    19  C    4.818620   0.557369  -0.030746   0.000000   0.000000  -0.000007
    20  C    0.557369   4.816853   0.527065   0.000000   0.000000   0.000364
    21  C   -0.030746   0.527065   5.085235   0.000000   0.000000  -0.001500
    22  C    0.000000   0.000000   0.000000   4.980494   0.357106   0.000000
    23  C    0.000000   0.000000   0.000000   0.357106   5.105647   0.000000
    24  C   -0.000007   0.000364  -0.001500   0.000000   0.000000   5.025444
    25  C    0.000003  -0.000010  -0.000204   0.000000   0.000000   0.355828
    26  H    0.000000   0.000000   0.000000   0.006936  -0.001045   0.000000
    27  H    0.000000   0.000000   0.000000   0.000005  -0.000003   0.002469
    28  H    0.000001   0.000000   0.000010  -0.000016  -0.000005  -0.000176
    29  H    0.000000   0.000000   0.000000   0.000003   0.000000   0.000000
    30  H    0.000000   0.000000   0.000000   0.000000   0.000000   0.000000
    31  H    0.000000   0.000000   0.000000  -0.000002   0.000000   0.000000
    32  H    0.000000   0.000000   0.000000   0.002598  -0.000183   0.000000
    33  H   -0.036987   0.005221   0.000796   0.000000   0.000000   0.000005
    34  H    0.361014  -0.039221   0.005615   0.000000   0.000000   0.000000
    35  H   -0.037397   0.359046  -0.036929   0.000000   0.000000  -0.000002
    36  H    0.004891  -0.036314   0.349722   0.000000   0.000000   0.001887
    37  H    0.000000   0.000000   0.000000   0.371148  -0.039222   0.000000
    38  H    0.000000   0.000000   0.000000   0.372392  -0.039248   0.000000
    39  H    0.000000   0.000000   0.000000  -0.026595   0.369804   0.000000
    40  H    0.000000   0.000000   0.000000  -0.032227   0.377411   0.000000
    41  H    0.000000   0.000000   0.000000  -0.033542   0.376425   0.000000
    42  H    0.000000  -0.000012   0.000394   0.000000   0.000000   0.369700
    43  H   -0.000013   0.000342   0.004631   0.000000   0.000000   0.370195
    44  H    0.000000   0.000001   0.000023   0.000000   0.000000  -0.035758
    45  H    0.000000   0.000000  -0.000092   0.000000   0.000000  -0.026182
    46  H    0.000006  -0.000091   0.001903   0.000000   0.000000  -0.031188
             25         26         27         28         29         30
     1  C    0.000130   0.359808  -0.056943  -0.010316  -0.000006   0.000000
     2  C   -0.003022  -0.056920   0.360352  -0.051582   0.000001   0.000000
     3  C    0.000120  -0.009591  -0.061120   0.365426   0.000000   0.000000
     4  C    0.001494   0.001118  -0.008025  -0.043780   0.000000   0.000000
     5  C   -0.000004  -0.042726  -0.012188   0.000921   0.000044   0.000001
     6  S   -0.000182  -0.000016   0.000194  -0.005955   0.000000   0.000000
     7  C   -0.000834   0.000001   0.000007   0.000460   0.000000   0.000000
     8  C   -0.001021   0.000000  -0.000108   0.000199   0.000000   0.000000
     9  N   -0.052714  -0.000005  -0.000368   0.005184   0.000000   0.000000
    10  S    0.000075   0.007486   0.009916   0.000069  -0.002516  -0.000312
    11  C    0.000000   0.000130   0.000151   0.000001  -0.058157   0.004646
    12  C    0.000000  -0.000967  -0.000029   0.000001   0.004814   0.001498
    13  N    0.000000  -0.015746   0.000197   0.000010  -0.000131   0.000006
[...]
 564,-0.07023667,-0.11711149,-0.00511813,-0.00309034,-0.00561420,-0.000
 08412,-0.00004617,-0.00003446,0.00022307,-0.00036296,0.00009252,0.0000
 8509,-0.00002639,-0.00010580,0.00000292,0.00000059,-0.00000551,-0.0000
 0360,0.00000007,-0.00000108,-0.00000160,0.00000010,-0.00000153,-0.0000
 0213,-0.00000078,-0.00000171,0.00002799,0.00000706,-0.00004137,0.00000
 507,-0.00003320,0.00005127,0.00001700,0.00000640,0.00000330,-0.0018182
 9,-0.00039470,0.00154210,-0.00000156,0.00000300,-0.00000939,-0.0000058
 3,0.00000061,-0.00000216,-0.00000106,-0.00000219,-0.00000013,-0.000000
 77,0.00000109,0.00000039,-0.00000089,0.00000240,0.00000553,-0.01442013
 ,-0.00952005,-0.01762580,0.17101864,-0.00082761,0.00010344,-0.00003949
 ,0.00085788,-0.00017749,-0.00022025,-0.00111786,-0.00015708,-0.0000438
 0,0.00395051,0.00102925,-0.00260603,0.00070037,-0.00045451,-0.00001815
 ,0.00015693,-0.00090317,0.00005314,-0.00015637,-0.00064922,-0.00013313
 ,-0.00203876,-0.00017551,0.00025165,-0.01321113,-0.02268859,-0.0215007
 3,0.00004567,0.00014897,0.00002217,-0.00015517,0.00005297,-0.00000723,
 0.00001169,-0.00001165,-0.00000050,-0.00030291,-0.00009950,0.00001812,
 0.00005609,-0.00006269,-0.00000118,-0.00008227,-0.00003806,0.00000062,
 -0.00001280,0.00009104,0.00000451,0.00005901,0.00001187,-0.00000328,-0
 .00024211,0.00003438,0.00004713,0.00006923,0.00023121,0.00005770,0.000
 27675,-0.00005988,-0.00000180,-0.00050139,0.00068901,0.00064167,0.0000
 2095,0.00010561,-0.00001097,0.00000467,-0.00001792,0.00001154,-0.06218
 424,-0.08681079,-0.06738704,0.01611706,0.01041451,0.01769114,-0.000002
 78,0.00000265,-0.00003855,-0.00021633,-0.00027419,0.00013960,-0.000088
 21,-0.00003386,0.00013534,-0.00000056,0.00000503,0.00000151,-0.0000040
 2,0.00000070,-0.00000076,-0.00000458,0.00000249,0.00000030,0.00000579,
 -0.00000273,-0.00000122,-0.00002314,-0.00000350,-0.00001915,0.00000304
 ,0.00001570,0.00000295,-0.00001290,0.00000907,-0.00001142,-0.00062699,
 0.00032724,0.00026667,0.00001032,-0.00000281,-0.00000181,-0.00001124,-
 0.00000780,-0.00000181,-0.00000027,-0.00000840,-0.00000947,-0.00000424
 ,0.00000370,0.00000284,0.00000144,0.00000301,0.00000731,-0.00765076,-0
 .00413907,-0.00815643,0.06656983,0.10526491,-0.00042333,0.00014486,0.0
 0007696,0.00074676,-0.00015977,0.00014096,-0.00050750,0.00011193,0.000
 12969,0.00266617,0.00159662,-0.00129866,0.00021292,-0.00010204,-0.0000
 0770,0.00033914,-0.00040300,0.00012701,-0.00019260,-0.00053284,-0.0001
 1000,-0.00157774,-0.00041956,0.00042688,-0.00622733,-0.01351910,-0.010
 53051,0.00001134,0.00005378,-0.00002872,-0.00002855,-0.00000238,0.0000
 2523,-0.00000497,0.00000132,-0.00000340,-0.00009578,-0.00006055,0.0000
 0450,0.00001436,-0.00001643,0.00000244,-0.00002298,-0.00001424,-0.0000
 0114,-0.00000472,0.00002971,0.00000231,0.00002183,0.00000182,-0.000004
 00,-0.00008124,0.00019209,0.00009702,-0.00006035,0.00002083,-0.0000336
 3,0.00009313,0.00047206,0.00025866,0.00000091,-0.00082197,-0.00008247,
 0.00000418,0.00004847,-0.00000756,0.00000235,-0.00000894,0.00000492,-0
 .11033418,-0.06928786,-0.17337883,-0.01537305,-0.00648236,-0.01537364,
 0.00004205,0.00002513,-0.00001757,-0.00006083,0.00030306,-0.00012375,-
 0.00005712,-0.00001759,0.00012401,0.00000228,-0.00000013,-0.00000057,-
 0.00000147,0.00000051,-0.00000128,-0.00000197,0.00000033,0.00000030,0.
 00000096,-0.00000177,-0.00000036,-0.00001892,0.00001980,-0.00002114,-0
 .00002965,0.00007838,0.00000714,-0.00000764,-0.00002150,0.00002141,0.0
 0095404,0.00096317,-0.00010814,0.00000614,-0.00000273,0.00000302,-0.00
 000309,-0.00000435,0.00000033,-0.00000078,-0.00000430,-0.00000325,0.00
 000043,0.00000222,0.00000129,-0.00000063,0.00000287,0.00000015,0.00913
 734,0.00653574,0.01320853,0.12114132,0.07852236,0.18655941,-0.00017561
 ,-0.00006365,0.00002209,-0.00013259,-0.00035108,0.00037750,0.00005970,
 0.00011259,0.00005067,-0.00019300,0.00035103,-0.00020006,0.00019910,-0
 .00023529,-0.00000355,0.00001058,0.00010821,0.00002679,0.00001587,-0.0
 0010941,-0.00007201,-0.00048753,-0.00000153,0.00014815,0.00053457,-0.0
 0083116,0.00036737,0.00002009,0.00001785,0.00003439,-0.00012569,0.0000
 7223,-0.00002503,0.00003327,0.00000233,-0.00000257,-0.00004097,0.00002
 016,0.00000517,0.00003773,-0.00001347,0.00000044,-0.00002876,-0.000016
 08,0.00000261,0.00000057,0.00002778,0.00000056,0.00001602,0.00001059,0
 .00000260,-0.00008113,0.00003651,0.00002416,0.00000382,0.00005730,0.00
 003419,0.00010137,0.00007916,-0.00001182,-0.00002012,-0.00014094,-0.00
 016297,0.00000411,-0.00000354,-0.00000384,0.00000623,0.00000284,-0.000
 00349,-0.00618320,-0.00212166,-0.00635121,-0.14995786,-0.06324307,-0.1
 1258049,-0.00003359,0.00000028,-0.00002732,-0.00019322,-0.00083553,0.0
 0022374,-0.00001361,0.00000130,-0.00000173,-0.00000355,0.00000237,-0.0
 0000152,0.00000207,0.00000007,-0.00000094,0.00000043,0.00000104,-0.000
 00060,0.00000601,0.00000101,-0.00000036,-0.00000250,0.00000517,-0.0000
 0542,-0.00000604,0.00001679,0.00000803,0.00000758,-0.00000187,-0.00000
 878,0.00020520,0.00008998,0.00013455,0.00000202,0.00000262,-0.00000064
 ,-0.00000204,0.00000296,0.00000174,0.00000006,0.00000039,0.00000120,-0
 .00000062,-0.00000066,-0.00000024,-0.00000213,-0.00000060,0.00000078,0
 .00038177,0.00032246,0.00041193,0.00063340,0.00137174,-0.00093702,0.15
 924938,0.00030084,0.00001815,0.00000032,-0.00056571,-0.00070538,0.0002
 7484,0.00008055,-0.00021427,0.00004919,0.00000575,-0.00022837,-0.00012
 730,-0.00044895,0.00035259,0.00004058,-0.00007288,0.00001774,0.0000525
 5,-0.00001207,0.00010376,0.00005947,0.00020370,0.00004436,-0.00017085,
 -0.00093627,0.00255163,-0.00037716,-0.00001936,-0.00004976,-0.00006862
 ,0.00014848,-0.00007613,0.00003162,-0.00002633,0.00000150,0.00000243,0
 .00014326,-0.00000534,-0.00001363,-0.00004287,0.00004397,0.00000436,0.
 00005414,0.00002017,-0.00000040,0.00000390,-0.00005464,-0.00000131,-0.
 00003360,-0.00001313,0.00000054,0.00001545,-0.00002364,0.00000390,-0.0
 0001474,-0.00000288,0.00000459,0.00000210,0.00001756,-0.00001729,-0.00
 004441,-0.00005435,-0.00011242,-0.00001615,-0.00002957,-0.00000168,-0.
 00000547,0.00000268,-0.00000245,0.01750268,0.00964437,0.01894823,-0.06
 348578,-0.08969698,-0.07237495,0.00003420,0.00000668,0.00002802,-0.000
 75464,-0.00074195,0.00067161,-0.00000845,0.00005133,-0.00006698,0.0000
 0653,-0.00000650,-0.00000691,0.00000115,0.00000012,-0.00000178,0.00000
 125,-0.00000227,-0.00000105,-0.00000644,-0.00000056,-0.00000016,0.0000
 0316,0.00000270,0.00000078,-0.00000277,-0.00000010,0.00000234,0.000007
 17,-0.00000473,0.00000088,0.00000717,-0.00008388,0.00009909,-0.0000016
 3,-0.00000212,0.00000199,0.00000431,0.00000053,-0.00000030,0.00000003,
 0.00000191,0.00000280,0.00000486,-0.00000023,-0.00000049,-0.00000141,0
 .00000042,-0.00000510,-0.00048502,0.00097694,-0.00108016,0.00154641,-0
 .00351370,0.00374910,0.06989354,0.09550275,0.00056071,-0.00046464,-0.0
 0002782,-0.00077302,0.00097938,0.00060404,0.00071029,-0.00029542,-0.00
 004639,-0.00148047,-0.00047295,0.00005734,-0.00011684,0.00023453,0.000
 05026,0.00003978,0.00002311,-0.00004146,0.00004995,0.00004960,0.000027
 74,0.00024313,0.00008464,0.00007251,0.00113429,0.00029417,0.00139111,0
 .00005807,0.00005939,-0.00004468,0.00020773,-0.00012407,0.00001439,-0.
 00008054,-0.00000909,-0.00000016,-0.00000952,-0.00003328,-0.00000554,-
 0.00006152,-0.00001327,-0.00000219,0.00001704,0.00001887,-0.00000087,-
 0.00000713,-0.00001089,0.00000026,-0.00000362,-0.00001708,-0.00000007,
 -0.00004264,0.00005224,0.00002122,0.00002575,0.00006158,-0.00000014,0.
 00007244,-0.00004019,0.00002809,0.00002390,-0.00010339,0.00007201,0.00
 000162,0.00002631,0.00000921,-0.00000156,-0.00000572,0.00000590,-0.012
 81997,-0.00952578,-0.01652421,-0.11312858,-0.07034231,-0.17695865,-0.0
 0012848,-0.00007481,-0.00006584,0.00061860,0.00045159,-0.00059458,0.00
 011328,-0.00008467,-0.00006572,0.00000932,-0.00000052,-0.00000126,-0.0
 0000859,0.00000012,0.00000120,-0.00000396,-0.00000065,-0.00000025,-0.0
 0000863,-0.00000343,-0.00000137,-0.00000715,-0.00000285,-0.00000028,-0
 .00000054,0.00000856,-0.00000434,-0.00000095,0.00000028,0.00000294,-0.
 00000925,0.00009540,-0.00014402,-0.00000184,0.00000324,-0.00001517,-0.
 00000913,-0.00000385,-0.00000573,-0.00000134,-0.00000506,-0.00000352,-
 0.00000348,0.00000298,0.00000125,0.00000248,0.00000342,0.00000962,0.00
 010417,-0.00051475,0.00052681,-0.00072807,0.00380816,-0.00149479,0.125
 45970,0.07489664,0.19106272,0.00017518,-0.00002211,-0.00000234,-0.0003
 0867,0.00009694,0.00003242,0.00041804,0.00007738,0.00002873,-0.0008669
 6,-0.00041338,-0.00043314,-0.00007568,-0.00004435,0.00001080,-0.000059
 54,0.00007772,0.00012592,0.00003483,0.00003733,0.00006833,0.00055127,-
 0.00015845,0.00002076,0.00050626,0.00215770,-0.00118698,-0.00001419,-0
 .00006871,-0.00003119,-0.00006519,0.00005180,0.00001821,0.00003148,0.0
 0001186,0.00000118,0.00009145,0.00008744,-0.00000341,0.00001129,0.0000
 0856,0.00000209,0.00000918,0.00000831,-0.00000108,0.00000874,-0.000017
 29,-0.00000127,-0.00001274,0.00000750,-0.00000201,0.00000411,0.0000061
 6,-0.00000416,-0.00000842,-0.00000449,0.00001778,0.00003694,0.00001490
 ,-0.00002898,-0.00008070,-0.00004958,-0.00007971,-0.00000004,-0.000055
 47,0.00000518,0.00000120,0.00001156,-0.00000822,-0.00523551,0.00503161
 ,0.00505918,-0.11099154,0.09419416,0.06223226,-0.00001258,0.00000223,-
 0.00001076,0.00005303,-0.00007963,-0.00007740,0.00000608,0.00000002,0.
 00000417,-0.00000959,0.00000372,0.00000044,0.00000456,-0.00000066,-0.0
 0000052,0.00000337,0.00000070,0.00000034,0.00000318,0.00000296,0.00000
 177,-0.00000216,0.00000394,-0.00001179,-0.00000436,0.00000181,0.000001
 93,-0.00001932,0.00000280,0.00000345,-0.00007281,0.00016179,0.00010873
 ,-0.00000546,0.00000255,0.00000208,0.00000543,0.00000648,0.00000250,0.
 00000014,0.00000526,0.00000537,0.00000088,-0.00000301,-0.00000139,-0.0
 0000146,-0.00000255,-0.00000278,0.00040808,-0.00006436,-0.00010704,-0.
 00006817,-0.00027973,0.00005253,0.01165080,-0.01636980,-0.00954810,0.1
 1565045,-0.00089990,0.00012014,0.00000414,0.00080543,-0.00026137,0.000
 01524,-0.00096709,0.00022997,0.00008881,0.00172976,0.00139189,0.000495
 02,0.00076331,-0.00059319,-0.00003981,0.00020735,-0.00003083,-0.000250
 99,0.00006761,-0.00033483,-0.00021307,-0.00109938,-0.00058924,0.000306
 55,0.00188918,-0.00440519,0.00316973,0.00003434,0.00009977,-0.00004424
 ,-0.00026777,0.00012957,0.00004401,0.00006180,-0.00000657,-0.00000506,
 -0.00027402,-0.00004460,0.00002475,0.00008258,-0.00005606,0.00000122,-
 0.00008736,-0.00004110,-0.00000066,-0.00000563,0.00008995,0.00000578,0
 .00005431,0.00002235,-0.00000555,0.00000659,0.00000604,-0.00003833,0.0
 0001800,-0.00005831,-0.00000900,-0.00006298,0.00011096,-0.00000398,0.0
 0013683,0.00009859,-0.00002987,0.00002022,0.00007028,-0.00001839,0.000
 00774,-0.00001208,0.00000555,0.00955728,-0.01547602,-0.01271975,0.0941
 2783,-0.19238951,-0.09528006,-0.00000255,0.00001758,-0.00001812,0.0000
 5608,-0.00021091,-0.00011865,-0.00005735,0.00000007,0.00003386,-0.0000
 0756,0.00000783,-0.00000283,0.00000065,0.00000049,-0.00000198,-0.00000
 202,0.00000301,-0.00000024,0.00001113,0.00000019,-0.00000252,0.0000102
 3,0.00000414,-0.00000492,0.00000305,0.00000346,0.00001008,0.00001013,0
 .00000286,-0.00000343,0.00002345,0.00003751,0.00007011,0.00001025,-0.0
 0000115,0.00000296,-0.00000759,-0.00000234,0.00000123,-0.00000004,-0.0
 0000485,-0.00000526,-0.00000227,0.00000163,0.00000157,-0.00000146,0.00
 000169,0.00000333,-0.00072183,0.00043167,-0.00038085,0.00016594,0.0008
 1328,-0.00006777,0.00548471,-0.00848088,-0.00499049,-0.10454470,0.2074
 8395,0.00017966,-0.00006295,0.00001400,-0.00029331,0.00020414,0.000036
 08,0.00040348,0.00001395,-0.00006373,-0.00119435,-0.00027622,-0.000373
 85,-0.00001506,-0.00004151,0.00000248,-0.00022588,0.00025343,0.0003504
 9,-0.00008448,0.00020892,0.00013169,0.00046535,0.00052660,-0.00009727,
 -0.00192522,0.00540784,-0.00193940,-0.00005842,-0.00007033,0.00003351,
 -0.00003287,0.00004148,-0.00001735,0.00001557,0.00000547,-0.00000342,0
 .00005831,0.00007027,-0.00000104,0.00000273,-0.00000978,-0.00000518,0.
 00000036,0.00000483,-0.00000036,0.00000305,-0.00000395,-0.00000032,-0.
 00000278,0.00000648,0.00000198,0.00000667,0.00001438,0.00003135,-0.000
 01337,0.00000845,-0.00000756,-0.00001906,-0.00007637,0.00000893,-0.000
 05081,-0.00001175,0.00004657,0.00000287,-0.00003972,0.00000147,0.00000
 328,0.00000812,-0.00000594,-0.01070990,0.01551616,0.01183832,0.0631667
 3,-0.09677823,-0.11408054,-0.00002386,-0.00000313,-0.00002462,0.000111
 37,-0.00012754,-0.00005796,0.00002019,-0.00000827,0.00002168,-0.000007
 29,0.00000204,0.00000502,0.00000051,-0.00000086,0.00000234,0.00000177,
 0.00000080,0.00000032,0.00000266,0.00000241,-0.00000067,-0.00001140,-0
 .00000277,-0.00000192,-0.00000128,-0.00000713,-0.00000564,-0.00000798,
 -0.00000114,-0.00000028,-0.00002139,-0.00008772,-0.00008253,-0.0000048
 1,0.00000393,-0.00000038,0.00000310,0.00000563,0.00000233,0.00000016,0
 .00000304,0.00000368,-0.00000079,-0.00000172,-0.00000145,-0.00000123,-
 0.00000141,-0.00000015,0.00062593,-0.00057979,0.00095827,-0.00002170,-
 0.00089922,0.00082649,0.01219605,-0.01522635,-0.01034100,-0.06814430,0
 .10319019,0.12018338,0.00011753,-0.00014247,0.00000824,-0.00011736,0.0
 0028898,0.00008956,-0.00006828,-0.00014578,0.00002180,-0.00007402,0.00
 009518,0.00017887,0.00001016,0.00011913,-0.00000296,0.00003552,-0.0001
 1192,-0.00006504,0.00010603,-0.00003770,0.00002990,0.00023488,0.000107
 95,0.00003359,0.00086350,-0.00097985,-0.00000837,0.00002149,0.00005224
 ,-0.00002265,0.00012276,-0.00007301,0.00001229,-0.00004351,-0.00001317
 ,0.00000192,-0.00005934,-0.00005622,-0.00000027,-0.00003163,-0.0000140
 8,-0.00000126,0.00000170,0.00000517,-0.00000176,-0.00000703,0.00000446
 ,0.00000041,0.00000493,-0.00000931,-0.00000196,-0.00007014,-0.00002811
 ,0.00000142,0.00001052,0.00005359,0.00002277,-0.00000623,-0.00004363,-
 0.00003536,-0.00051327,0.00006038,-0.00028970,0.00000048,0.00004015,0.
 00000466,0.00000006,-0.00000792,0.00000605,0.01043996,0.00567638,-0.00
 638032,-0.22137766,-0.08531278,0.10012414,-0.00003872,-0.00002761,-0.0
 0000867,0.00009613,0.00006285,-0.00011958,0.00004248,-0.00002448,-0.00
 001875,0.00000801,-0.00000148,0.00000321,-0.00000616,0.00000024,0.0000
 0078,-0.00000324,-0.00000046,0.00000054,-0.00000474,-0.00000288,0.0000
 0031,-0.00000203,0.00000137,-0.00001677,0.00000856,-0.00000763,0.00000
 848,0.00000717,0.00000281,-0.00000216,-0.00034434,0.00019711,-0.000335
 20,0.00000228,-0.00000007,-0.00000679,-0.00000611,-0.00000547,-0.00000
 303,-0.00000093,-0.00000484,-0.00000352,-0.00000209,0.00000295,0.00000
 125,0.00000174,0.00000321,0.00000511,0.00004805,0.00239263,-0.00208171
 ,0.00067217,-0.00053061,0.00060323,-0.01549798,-0.00661588,0.00953266,
 -0.01175088,-0.00633431,0.00560174,0.23716954,0.00027092,-0.00012301,-
 0.00004897,-0.00032555,0.00037209,0.00025827,0.00056613,-0.00003746,-0
 .00009205,-0.00083084,-0.00063935,-0.00023612,-0.00007252,0.00003230,0
 .00002649,0.00011978,-0.00008914,0.00000486,0.00011517,-0.00020363,-0.
 00004135,0.00015547,-0.00047805,0.00013260,-0.00113608,0.00217794,-0.0
 0043477,-0.00002107,-0.00005315,-0.00000331,0.00001077,0.00000979,0.00
 000170,-0.00000025,0.00000376,-0.00000001,0.00005470,0.00004258,-0.000
 00537,-0.00000865,0.00000373,-0.00000165,0.00000915,0.00000692,-0.0000
 0009,0.00000249,-0.00001119,-0.00000090,-0.00000720,0.00000138,0.00000
 026,-0.00014246,0.00002986,0.00000585,0.00002918,0.00014424,0.00008455
 ,0.00026085,0.00006290,-0.00015613,-0.00002589,-0.00005671,-0.00017740
 ,0.00000360,-0.00002436,0.00000601,-0.00000208,0.00000509,-0.00000224,
 -0.01880206,-0.01138744,0.01211491,-0.08411094,-0.09081329,0.04792207,
 -0.00003669,-0.00001777,-0.00001263,0.00030822,-0.00003722,-0.00003710
 ,0.00003200,-0.00002622,-0.00004883,-0.00000240,0.00000107,-0.00000093
 ,0.00000071,-0.00000012,0.00000089,0.00000069,0.00000012,0.00000012,0.
 00000013,0.00000083,0.00000018,-0.00000582,-0.00000086,0.00000304,-0.0
 0000773,0.00001702,0.00001988,-0.00002276,-0.00000012,-0.00000267,0.00
 004362,0.00022519,0.00033817,-0.00000432,0.00000353,-0.00000260,0.0000
 0104,0.00000307,-0.00000063,-0.00000015,0.00000136,0.00000195,-0.00000
 069,-0.00000087,-0.00000115,0.00000069,-0.00000023,0.00000159,0.001907
 96,-0.00250204,0.00312945,0.00033041,0.00093207,-0.00092499,-0.0101254
 7,-0.00537052,0.00598493,0.02010307,0.01182018,-0.01118071,0.09136489,
 0.09597575,0.00009927,-0.00010085,0.00003952,-0.00012349,0.00007724,0.
 00021039,-0.00009672,-0.00017142,0.00000272,-0.00014518,-0.00017027,0.
 00008418,-0.00001372,0.00003484,-0.00000586,-0.00012833,0.00001031,0.0
 0001425,-0.00013022,0.00014325,0.00001675,0.00053952,0.00037587,0.0000
 8471,-0.00048838,-0.00105511,0.00086718,0.00001369,0.00002582,-0.00006
 421,0.00003483,-0.00002351,0.00004048,-0.00001776,0.00000023,-0.000000
 96,-0.00000029,-0.00000275,0.00000094,-0.00001023,-0.00000430,0.000001
 46,0.00000207,0.00000517,-0.00000180,-0.00000152,-0.00000299,0.0000005
 7,-0.00000098,-0.00000400,-0.00000274,0.00008199,-0.00003534,-0.000016
 88,0.00001553,-0.00004017,-0.00006603,-0.00012001,-0.00023791,0.000008
 30,-0.00007050,0.00043849,0.00036419,-0.00000264,0.00000242,-0.0000006
 1,0.00000088,-0.00000171,0.00000029,0.01867381,0.00856704,-0.01217537,
 0.09818828,0.04874919,-0.10669717,-0.00002889,-0.00001754,-0.00000932,
 0.00009422,0.00011341,-0.00032696,0.00003288,-0.00000437,-0.00003810,0
 .00000022,0.00000115,-0.00000043,-0.00000155,-0.00000017,-0.00000062,-
 0.00000033,0.00000010,0.00000002,-0.00000192,-0.00000052,-0.00000009,-
 0.00000740,-0.00000751,0.00000469,0.00001291,-0.00003361,-0.00001428,-
 0.00001453,0.00000751,0.00002250,-0.00037464,-0.00009478,-0.00042392,0
 .00000086,-0.00000003,-0.00000357,-0.00000232,-0.00000049,-0.00000121,
 -0.00000060,-0.00000053,-0.00000009,-0.00000038,0.00000041,0.00000079,
 0.00000016,0.00000094,0.00000191,-0.00226415,0.00314152,-0.00188194,0.
 00039506,-0.00057302,0.00058241,-0.01913284,-0.00926854,0.01243143,0.0
 1188039,0.00678170,-0.00738782,-0.10688709,-0.05662515,0.11434029||0.0
 0000322,0.00001332,0.00000305,-0.00000721,-0.00000760,0.00000227,0.000
 01755,0.00000247,0.00000411,-0.00001184,-0.00001670,-0.00000817,-0.000
 00957,-0.00000488,0.00000280,0.00000754,0.00001099,0.00000040,-0.00002
 323,0.00000769,0.00000651,0.00002132,-0.00001304,-0.00000757,-0.000015
 73,0.00001814,0.00001085,0.00000096,-0.00000074,-0.00000522,-0.0000046
 3,-0.00001206,0.00000299,0.00000943,0.00000713,0.00000145,0.00000228,0
 .00000289,-0.00000213,0.00000204,0.00000285,-0.00000161,0.00000141,0.0
 0000124,-0.00000105,0.00000062,-0.00000264,0.00000022,-0.00000221,0.00
 000288,0.00000073,0.00000623,-0.00000408,-0.00000168,-0.00000176,-0.00
 000420,-0.00000297,-0.00000312,0.00000265,-0.00000039,0.00000174,0.000
 00008,0.00000034,0.00000237,0.00000340,0.00000449,-0.00000210,-0.00000
 109,0.00000438,0.00000965,-0.00001439,-0.00001598,-0.00000089,0.000002
 75,0.00000104,0.00000120,-0.00000141,-0.00000203,-0.00000050,0.0000013
 1,-0.00000097,-0.00000273,-0.00000051,0.00000156,-0.00000088,0.0000006
 2,-0.00000128,0.00000010,0.00000089,-0.00000067,-0.00000001,0.00000028
 ,0.00000043,-0.00000080,-0.00000010,0.00000114,0.00000088,-0.00000022,
 0.00000067,0.00000041,-0.00000102,-0.00000026,0.00000042,-0.00000005,-
 0.00000249,0.00000023,0.00000078,-0.00000350,-0.00000030,-0.00000138,0
 .00000388,0.00000069,0.00000135,0.00000156,-0.00000047,-0.00000084,0.0
 0000216,-0.00000048,-0.00000116,0.00000085,-0.00000059,-0.00000077,0.0
 0000238,0.00000025,0.00000363,0.00000430,-0.00000218,0.00000282,0.0000
 0199,0.00000022,-0.00000101,-0.00000247,-0.00000030,0.00000048,-0.0000
 0359,0.00000078,-0.00000074,-0.00000253|||@


 I CLAIM NOT TO HAVE CONTROLLED EVENTS,
 BUT CONFESS PLAINLY THAT EVENTS HAVE CONTROLLED ME.

                                         A. LINCOLN
 Job cpu time:  0 days  0 hours 24 minutes 59.0 seconds.
 File lengths (MBytes):  RWF=   1037 Int=      0 D2E=      0 Chk=     14 Scr=      1
 Normal termination of Gaussian 09 at Wed Oct 25 01:52:09 2023.
