 Entering Gaussian System, Link 0=g16
 Initial command:
 /nfs-share/home/2100011873/Gaussian16_AVX2/g16/l1.exe "/nfs-share/home/2100011873/GaussTmp/Gau-177613.inp" -scrdir="/nfs-share/home/2100011873/GaussTmp/"
 Entering Link 1 = /nfs-share/home/2100011873/Gaussian16_AVX2/g16/l1.exe PID=    177614.
  
 Copyright (c) 1988-2021, Gaussian, Inc.  All Rights Reserved.
  
 This is part of the Gaussian(R) 16 program.  It is based on
 the Gaussian(R) 09 system (copyright 2009, Gaussian, Inc.),
 the Gaussian(R) 03 system (copyright 2003, Gaussian, Inc.),
 the Gaussian(R) 98 system (copyright 1998, Gaussian, Inc.),
 the Gaussian(R) 94 system (copyright 1995, Gaussian, Inc.),
 the Gaussian 92(TM) system (copyright 1992, Gaussian, Inc.),
 the Gaussian 90(TM) system (copyright 1990, Gaussian, Inc.),
 the Gaussian 88(TM) system (copyright 1988, Gaussian, Inc.),
 the Gaussian 86(TM) system (copyright 1986, Carnegie Mellon
 University), and the Gaussian 82(TM) system (copyright 1983,
 Carnegie Mellon University). Gaussian is a federally registered
 trademark of Gaussian, Inc.
  
 This software contains proprietary and confidential information,
 including trade secrets, belonging to Gaussian, Inc.
  
 This software is provided under written license and may be
 used, copied, transmitted, or stored only in accord with that
 written license.
  
 The following legend is applicable only to US Government
 contracts under FAR:
  
                    RESTRICTED RIGHTS LEGEND
  
 Use, reproduction and disclosure by the US Government is
 subject to restrictions as set forth in subparagraphs (a)
 and (c) of the Commercial Computer Software - Restricted
 Rights clause in FAR 52.227-19.
  
 Gaussian, Inc.
 340 Quinnipiac St., Bldg. 40, Wallingford CT 06492
  
  
 ---------------------------------------------------------------
 Warning -- This program may not be used in any manner that
 competes with the business of Gaussian, Inc. or will provide
 assistance to any competitor of Gaussian, Inc.  The licensee
 of this program is prohibited from giving any competitor of
 Gaussian, Inc. access to this program.  By using this program,
 the user acknowledges that Gaussian, Inc. is engaged in the
 business of creating and licensing software in the field of
 computational chemistry and represents and warrants to the
 licensee that it is not a competitor of Gaussian, Inc. and that
 it will not use this program in any manner prohibited above.
 ---------------------------------------------------------------
  

 Cite this work as:
 Gaussian 16, Revision C.02,
 M. J. Frisch, G. W. Trucks, H. B. Schlegel, G. E. Scuseria, 
 M. A. Robb, J. R. Cheeseman, G. Scalmani, V. Barone, 
 G. A. Petersson, H. Nakatsuji, X. Li, M. Caricato, A. V. Marenich, 
 J. Bloino, B. G. Janesko, R. Gomperts, B. Mennucci, H. P. Hratchian, 
 J. V. Ortiz, A. F. Izmaylov, J. L. Sonnenberg, D. Williams-Young, 
 F. Ding, F. Lipparini, F. Egidi, J. Goings, B. Peng, A. Petrone, 
 T. Henderson, D. Ranasinghe, V. G. Zakrzewski, J. Gao, N. Rega, 
 G. Zheng, W. Liang, M. Hada, M. Ehara, K. Toyota, R. Fukuda, 
 J. Hasegawa, M. Ishida, T. Nakajima, Y. Honda, O. Kitao, H. Nakai, 
 T. Vreven, K. Throssell, J. A. Montgomery, Jr., J. E. Peralta, 
 F. Ogliaro, M. J. Bearpark, J. J. Heyd, E. N. Brothers, K. N. Kudin, 
 V. N. Staroverov, T. A. Keith, R. Kobayashi, J. Normand, 
 K. Raghavachari, A. P. Rendell, J. C. Burant, S. S. Iyengar, 
 J. Tomasi, M. Cossi, J. M. Millam, M. Klene, C. Adamo, R. Cammi, 
 J. W. Ochterski, R. L. Martin, K. Morokuma, O. Farkas, 
 J. B. Foresman, and D. J. Fox, Gaussian, Inc., Wallingford CT, 2019.
 
 ******************************************
 Gaussian 16:  ES64L-G16RevC.02  7-Dec-2021
                 3-Nov-2023 
 ******************************************
 %nprocshared=32
 Will use up to   32 processors via shared memory.
 %mem=128GB
 ------------------------------------------------------------
 # td=(nstates=150) b3lyp/def2TZVP scrf(smd, solvent=ethanol)
 ------------------------------------------------------------
 1/38=1,172=1/1;
 2/12=2,17=6,18=5,40=1/2;
 3/5=44,7=101,11=9,25=1,30=1,70=32201,72=4,74=-5/1,2,3,8;
 4//1;
 5/5=2,38=5,53=4/2;
 8/6=1,10=1,108=150/1;
 9/41=150,42=1,70=2/14;
 6/7=2,8=2,9=2,10=2/1;
 99/5=1,9=1/99;
 ---
 A-1
 ---
 Symbolic Z-matrix:
 Charge =  1 Multiplicity = 1
 C                    -1.25921   0.2167   -0.03937 
 C                     0.        0.82894  -0.00012 
 C                     1.25921   0.21668   0.03925 
 N                     2.43346   0.90485   0.146 
 S                    -1.55756  -1.51215   0.05388 
 C                    -3.29767  -1.25882  -0.02728 
 C                    -3.5899    0.10887  -0.1183 
 N                    -2.43347   0.90486  -0.14611 
 S                     1.55755  -1.51217  -0.05392 
 C                     3.29766  -1.25885   0.0273 
 C                     3.5899    0.10884   0.11825 
 C                    -4.30157  -2.22442  -0.00362 
 C                    -5.62465  -1.79213  -0.06698 
 C                    -5.92564  -0.42569  -0.14901 
 C                    -4.92039   0.53827  -0.17427 
 C                     4.30156  -2.22445   0.00372 
 C                     5.62464  -1.79215   0.06707 
 C                     5.92564  -0.42571   0.14902 
 C                     4.92038   0.53826   0.17421 
 C                    -2.51035   2.37353  -0.25723 
 C                    -2.56643   3.07379   1.10152 
 C                     2.51034   2.3735    0.2573 
 C                     2.56651   3.07393  -1.10136 
 H                     0.00001   1.90904  -0.00021 
 H                    -4.06058  -3.28031   0.06397 
 H                    -6.42724  -2.52213  -0.04909 
 H                    -6.96206  -0.10651  -0.19134 
 H                    -5.17675   1.59021  -0.22813 
 H                     4.06057  -3.28035  -0.06382 
 H                     6.42723  -2.52216   0.04923 
 H                     6.96205  -0.10653   0.19134 
 H                     5.17673   1.5902    0.22802 
 H                    -1.65749   2.70849  -0.85213 
 H                    -3.39812   2.59717  -0.85222 
 H                    -3.44119   2.75206   1.67457 
 H                    -1.67384   2.86336   1.69908 
 H                    -2.63423   4.15636   0.9543 
 H                     1.65744   2.70838   0.85218 
 H                     3.39807   2.59706   0.85237 
 H                     3.44133   2.75234  -1.67437 
 H                     1.67399   2.86351  -1.69903 
 H                     2.63421   4.15649  -0.95399 
 
                          Input orientation:                          
 ---------------------------------------------------------------------
 Center     Atomic      Atomic             Coordinates (Angstroms)
 Number     Number       Type             X           Y           Z
 ---------------------------------------------------------------------
      1          6           0       -1.259214    0.216698   -0.039367
      2          6           0        0.000003    0.828935   -0.000122
      3          6           0        1.259209    0.216684    0.039249
      4          7           0        2.433464    0.904848    0.145998
      5         16           0       -1.557561   -1.512152    0.053882
      6          6           0       -3.297665   -1.258824   -0.027283
      7          6           0       -3.589904    0.108866   -0.118299
      8          7           0       -2.433474    0.904863   -0.146106
      9         16           0        1.557549   -1.512171   -0.053923
     10          6           0        3.297657   -1.258850    0.027304
     11          6           0        3.589900    0.108842    0.118251
     12          6           0       -4.301571   -2.224422   -0.003624
     13          6           0       -5.624645   -1.792125   -0.066975
     14          6           0       -5.925643   -0.425687   -0.149009
     15          6           0       -4.920394    0.538274   -0.174272
     16          6           0        4.301563   -2.224450    0.003718
     17          6           0        5.624635   -1.792149    0.067066
     18          6           0        5.925635   -0.425707    0.149021
     19          6           0        4.920384    0.538258    0.174213
     20          6           0       -2.510348    2.373529   -0.257226
     21          6           0       -2.566433    3.073786    1.101522
     22          6           0        2.510339    2.373497    0.257299
     23          6           0        2.566508    3.073929   -1.101357
     24          1           0        0.000014    1.909040   -0.000214
     25          1           0       -4.060576   -3.280313    0.063971
     26          1           0       -6.427238   -2.522132   -0.049094
     27          1           0       -6.962056   -0.106514   -0.191342
     28          1           0       -5.176748    1.590213   -0.228130
     29          1           0        4.060566   -3.280345   -0.063815
     30          1           0        6.427230   -2.522156    0.049231
     31          1           0        6.962048   -0.106532    0.191339
     32          1           0        5.176733    1.590201    0.228019
     33          1           0       -1.657488    2.708489   -0.852128
     34          1           0       -3.398115    2.597174   -0.852215
     35          1           0       -3.441185    2.752064    1.674572
     36          1           0       -1.673838    2.863356    1.699082
     37          1           0       -2.634230    4.156364    0.954302
     38          1           0        1.657436    2.708379    0.852183
     39          1           0        3.398074    2.597059    0.852370
     40          1           0        3.441334    2.752344   -1.674368
     41          1           0        1.673988    2.863510   -1.699033
     42          1           0        2.634214    4.156493   -0.953990
 ---------------------------------------------------------------------
                    Distance matrix (angstroms):
                    1          2          3          4          5
     1  C    0.000000
     2  C    1.400715   0.000000
     3  C    2.519650   1.400715   0.000000
     4  N    3.760822   2.439026   1.365225   0.000000
     5  S    1.756880   2.812403   3.305039   4.666761   0.000000
     6  C    2.516465   3.903087   4.790266   6.128405   1.760320
     7  C    2.334518   3.663318   4.852870   6.081480   2.605334
     8  N    1.365229   2.439034   3.760832   4.875696   2.578600
     9  S    3.305050   2.812405   1.756880   2.578600   3.116975
    10  C    4.790278   3.903091   2.516468   2.332918   4.861894
    11  C    4.852874   3.663319   2.334522   1.404186   5.397047
    12  C    3.900805   5.275087   6.073147   7.428015   2.835529
    13  C    4.805530   6.205730   7.171753   8.500126   4.078500
    14  C    4.711713   6.058839   7.215967   8.469476   4.505742
    15  C    3.677751   4.932050   6.191648   7.369951   3.945244
    16  C    6.073162   5.275092   3.900810   3.647265   5.902476
    17  C    7.171762   6.205730   4.805531   4.178947   7.187664
    18  C    7.215970   6.058835   4.711714   3.737064   7.562251
    19  C    6.191643   4.932042   3.677748   2.513952   6.795766
    20  C    2.502942   2.958671   4.353095   5.173093   4.012868
    21  C    3.342664   3.583234   4.891523   5.533199   4.811050
    22  C    4.353082   2.958669   2.502941   1.474865   5.629161
    23  C    4.891599   3.583248   3.342733   2.505695   6.274923
    24  H    2.109789   1.080105   2.109786   2.636562   3.759458
    25  H    4.481896   5.777398   6.366295   7.726245   3.064568
    26  H    5.848911   7.248550   8.160293   9.502331   4.974376
    27  H    5.714015   7.027225   8.230846   9.455816   5.589680
    28  H    4.155628   5.237393   6.586320   7.650165   4.775219
    29  H    6.366315   5.777405   4.481901   4.495256   5.890985
    30  H    8.160306   7.248551   5.848913   5.263448   8.048417
    31  H    8.230848   7.027220   5.714015   4.640368   8.635879
    32  H    6.586305   5.237376   4.155620   2.828774   7.416578
    33  H    2.651080   2.646869   3.938371   4.580968   4.317945
    34  H    3.301861   3.924275   5.305856   6.153675   4.592952
    35  H    3.758546   4.283083   5.585350   6.345096   4.935404
    36  H    3.193574   3.134949   4.285170   4.808092   4.676032
    37  H    4.289407   4.349930   5.614024   6.075132   5.839696
    38  H    3.938297   2.646851   2.651036   2.086538   5.365293
    39  H    5.305812   3.924270   3.301832   2.071958   6.487027
    40  H    5.585506   4.283148   3.758687   2.782584   6.794242
    41  H    4.285298   3.134967   3.193643   2.795943   5.715071
    42  H    5.614027   4.349894   4.289436   3.438527   7.121820
                    6          7          8          9         10
     6  C    0.000000
     7  C    1.401522   0.000000
     8  N    2.332914   1.404178   0.000000
     9  S    4.861892   5.397053   4.666778   0.000000
    10  C    6.595548   7.023556   6.128425   1.760325   0.000000
    11  C    7.023549   7.183700   6.081494   2.605336   1.401520
    12  C    1.393114   2.442100   3.647261   5.902467   7.660389
    13  C    2.387639   2.785062   4.178945   7.187660   8.938722
    14  C    2.759566   2.396324   3.737060   7.562252   9.262533
    15  C    2.425782   1.399188   2.513951   6.795775   8.414669
    16  C    7.660396   8.230097   7.428039   2.835538   1.393114
    17  C    8.938723   9.410417   8.500143   4.078506   2.387638
    18  C    9.262528   9.534291   8.469488   4.505748   2.759567
    19  C    8.414656   8.526133   7.369955   3.945246   2.425783
    20  C    3.723806   2.512656   1.474868   5.629190   6.856242
    21  C    4.536564   3.365443   2.505690   6.274813   7.369751
    22  C    6.856213   6.517867   5.173095   4.012865   3.723803
    23  C    7.369865   6.903580   5.533279   4.811178   4.536676
    24  H    4.572831   4.017721   2.636573   3.759453   4.572826
    25  H    2.162586   3.426556   4.495252   5.890972   7.630940
    26  H    3.375004   3.870065   5.263445   8.048408   9.806901
    27  H    3.844801   3.379813   4.640365   8.635880  10.326538
    28  H    3.418816   2.173597   2.828778   7.416596   8.944157
    29  H    7.630953   8.367760   7.726273   3.064577   2.162585
    30  H    9.806908  10.358249   9.502352   4.974385   3.375004
    31  H   10.326533  10.558691   9.455825   5.589685   3.844802
    32  H    8.944135   8.897652   7.650157   4.775217   3.418816
    33  H    4.371513   3.321261   2.086549   5.365404   6.408326
    34  H    3.944531   2.601364   2.071965   6.487110   7.776621
    35  H    4.359373   3.197343   2.782535   6.794022   8.013296
    36  H    4.754947   3.815940   2.795972   5.714904   6.671071
    37  H    5.543277   4.294884   3.438526   7.121785   8.085243
    38  H    6.408212   5.935813   4.580916   4.317875   4.371459
    39  H    7.776538   7.480985   6.153652   4.592893   3.944471
    40  H    8.013518   7.671221   6.345245   4.935643   4.359588
    41  H    6.671261   6.147792   4.808235   4.676166   4.755039
    42  H    8.085273   7.471366   6.075133   5.839784   5.543378
                   11         12         13         14         15
    11  C    0.000000
    12  C    8.230084   0.000000
    13  C    9.410410   1.393348   0.000000
    14  C    9.534291   2.427796   1.401600   0.000000
    15  C    8.526141   2.836292   2.436851   1.392977   0.000000
    16  C    2.442096   8.603137   9.935870  10.385308   9.628542
    17  C    2.785055   9.935865  11.250079  11.632834  10.802164
    18  C    2.396320  10.385298  11.632829  11.855025  10.893582
    19  C    1.399185   9.628524  10.802152  10.893574   9.846946
    20  C    6.517884   4.941047   5.204586   4.417189   3.030407
    21  C    6.903488   5.683578   5.864737   5.009434   3.687493
    22  C    2.512658   8.222594   9.145246   8.897545   7.666165
    23  C    3.365489   8.743458   9.583497   9.234225   7.958815
    24  H    4.017714   5.965665   6.733489   6.370754   5.110745
    25  H    8.367742   1.085151   2.162906   3.416537   3.921435
    26  H   10.358237   2.146895   1.085074   2.157930   3.413551
    27  H   10.558693   3.405724   2.155324   1.085272   2.141127
    28  H    8.897671   3.920176   3.415669   2.151966   1.084064
    29  H    3.426553   8.428756   9.798884  10.386563   9.759697
    30  H    3.870059  10.733062  12.074524  12.531079  11.755201
    31  H    3.379809  11.462660  12.701685  12.896134  11.905540
    32  H    2.173594  10.219748  11.322408  11.290204  10.159742
    33  H    5.935898   5.660808   6.050647   5.341777   3.976918
    34  H    7.481040   4.978366   4.983973   4.002572   2.648775
    35  H    7.671044   5.321844   5.333867   4.426746   3.241473
    36  H    6.147627   5.974083   6.356205   5.684284   4.410849
    37  H    7.471359   6.664239   6.735734   5.748555   4.426150
    38  H    3.321245   7.782975   8.609767   8.266066   7.002201
    39  H    2.601337   9.124908  10.075693   9.852485   8.630730
    40  H    3.197445   9.354794  10.267808  10.008339   8.779003
    41  H    3.815945   8.029245   8.809574   8.424713   7.156640
    42  H    4.294941   9.472296  10.216732   9.742460   8.412584
                   16         17         18         19         20
    16  C    0.000000
    17  C    1.393347   0.000000
    18  C    2.427797   1.401600   0.000000
    19  C    2.836294   2.436852   1.392980   0.000000
    20  C    8.222629   9.145271   8.897560   7.666168   0.000000
    21  C    8.743332   9.583372   9.234118   7.958721   1.529608
    22  C    4.941043   5.204578   4.417184   3.030400   5.046983
    23  C    5.683698   5.864816   5.009454   3.687470   5.193995
    24  H    5.965658   6.733475   6.370738   5.110725   2.565877
    25  H    8.428751   9.798875  10.386550   9.759676   5.871312
    26  H   10.733060  12.074519  12.531070  11.755185   6.273184
    27  H   11.462670  12.701690  12.896135  11.905534   5.096338
    28  H   10.219774  11.322429  11.290221  10.159752   2.779230
    29  H    1.085152   2.162908   3.416539   3.921438   8.670675
    30  H    2.146896   1.085075   2.157928   3.413552  10.195192
    31  H    3.405724   2.155324   1.085272   2.141130   9.801949
    32  H    3.920178   3.415672   2.151971   1.084064   7.742111
    33  H    7.783100   8.609877   8.266150   7.002262   1.092464
    34  H    9.125005  10.075775   9.852543   8.630766   1.091860
    35  H    9.354549  10.267572  10.008139   8.778830   2.177519
    36  H    8.029038   8.809365   8.424525   7.156470   2.183305
    37  H    9.472255  10.216694   9.742440   8.412575   2.159085
    38  H    5.660751   6.050606   5.341765   3.976921   4.325891
    39  H    4.978298   4.983916   4.002547   2.648771   6.015864
    40  H    5.322072   5.334024   4.426794   3.241453   6.129789
    41  H    5.974182   6.356247   5.684255   4.410775   4.452814
    42  H    6.664360   6.735838   5.748621   4.426177   5.489167
                   21         22         23         24         25
    21  C    0.000000
    22  C    5.193913   0.000000
    23  C    5.585674   1.529610   0.000000
    24  H    3.026071   2.565885   3.025950   0.000000
    25  H    6.609353   8.670632   9.254870   6.589529   0.000000
    26  H    6.895218  10.195163  10.644746   7.806872   2.487712
    27  H    5.577392   9.801939  10.086470   7.250476   4.307757
    28  H    3.283703   7.742124   7.932336   5.191576   5.005316
    29  H    9.254734   5.871307   6.609501   6.589525   8.122147
    30  H   10.644616   6.273177   6.895302   7.806859  10.515184
    31  H   10.086367   5.096333   5.577380   7.250458  11.471153
    32  H    7.932254   2.779221   3.283590   5.191548  10.443979
    33  H    2.185491   4.325948   4.247094   2.027853   6.517654
    34  H    2.176222   6.015886   5.988831   3.570254   5.985241
    35  H    1.094113   6.129650   6.625840   3.918858   6.274333
    36  H    1.094570   4.452644   5.085994   2.569067   6.790786
    37  H    1.094644   5.489173   5.696058   3.591769   7.624390
    38  H    4.246971   1.092463   2.185488   2.027948   8.317534
    39  H    5.988713   1.091862   2.176225   3.570306   9.528722
    40  H    6.625870   2.177525   1.094111   3.918754   9.782302
    41  H    5.086108   2.183307   1.094571   2.568888   8.587198
    42  H    5.695973   2.159083   1.094644   3.591621  10.057959
                   26         27         28         29         30
    26  H    0.000000
    27  H    2.478200   0.000000
    28  H    4.301995   2.463242   0.000000
    29  H   10.515186  11.471167  10.444008   0.000000
    30  H   12.854844  13.607578  12.314252   2.487716   0.000000
    31  H   13.607568  13.929362  12.263982   4.307759   2.478198
    32  H   12.314228  12.263968  10.363525   5.005319   4.301998
    33  H    7.124239   6.041467   3.745011   8.317675   9.671337
    34  H    6.002323   4.521986   2.137051   9.528837  11.115644
    35  H    6.301165   4.904043   2.825306   9.782035  11.306845
    36  H    7.392862   6.352880   4.195881   8.586982   9.866765
    37  H    7.745710   6.181805   3.801010  10.057907  11.293000
    38  H    9.671220   9.127333   7.008812   6.517584   7.124196
    39  H   11.115553  10.757831   8.701080   5.985162   6.002265
    40  H   11.307092  10.890499   8.815526   6.274605   6.301327
    41  H    9.866980   9.256102   7.121617   6.790924   7.392911
    42  H   11.293041  10.528213   8.253714   7.624530   7.745823
                   31         32         33         34         35
    31  H    0.000000
    32  H    2.463249   0.000000
    33  H    9.127407   7.008842   0.000000
    34  H   10.757881   8.701087   1.744183   0.000000
    35  H   10.890308   8.815382   3.093168   2.531896   0.000000
    36  H    9.255920   7.121466   2.555958   3.090809   1.771017
    37  H   10.528198   8.253716   2.512679   2.505613   1.772575
    38  H    6.041469   3.745044   3.727385   5.336285   5.164704
    39  H    4.521977   2.137102   5.336332   7.006696   6.890247
    40  H    4.904025   2.825113   5.164880   6.890434   7.654049
    41  H    6.352813   4.195720   3.440932   5.149200   6.128509
    42  H    6.181853   3.800974   4.530541   6.231439   6.766996
                   36         37         38         39         40
    36  H    0.000000
    37  H    1.774520   0.000000
    38  H    3.440733   4.530506   0.000000
    39  H    5.148993   6.231413   1.744194   0.000000
    40  H    6.128415   6.767101   3.093167   2.531875   0.000000
    41  H    4.770233   5.222298   2.555982   3.090813   1.771010
    42  H    5.222098   5.603399   2.512646   2.505644   1.772575
                   41         42
    41  H    0.000000
    42  H    1.774522   0.000000
 Stoichiometry    C19H19N2S2(1+)
 Framework group  C1[X(C19H19N2S2)]
 Deg. of freedom   120
 Full point group                 C1      NOp   1
 Largest Abelian subgroup         C1      NOp   1
 Largest concise Abelian subgroup C1      NOp   1
                         Standard orientation:                         
 ---------------------------------------------------------------------
 Center     Atomic      Atomic             Coordinates (Angstroms)
 Number     Number       Type             X           Y           Z
 ---------------------------------------------------------------------
      1          6           0       -1.259214    0.216698   -0.039367
      2          6           0        0.000003    0.828935   -0.000122
      3          6           0        1.259209    0.216684    0.039249
      4          7           0        2.433464    0.904848    0.145998
      5         16           0       -1.557561   -1.512152    0.053882
      6          6           0       -3.297665   -1.258824   -0.027283
      7          6           0       -3.589904    0.108866   -0.118299
      8          7           0       -2.433474    0.904863   -0.146106
      9         16           0        1.557549   -1.512171   -0.053923
     10          6           0        3.297657   -1.258850    0.027304
     11          6           0        3.589900    0.108842    0.118251
     12          6           0       -4.301571   -2.224422   -0.003624
     13          6           0       -5.624645   -1.792125   -0.066975
     14          6           0       -5.925643   -0.425687   -0.149009
     15          6           0       -4.920394    0.538274   -0.174272
     16          6           0        4.301563   -2.224450    0.003718
     17          6           0        5.624635   -1.792149    0.067066
     18          6           0        5.925635   -0.425707    0.149021
     19          6           0        4.920384    0.538258    0.174213
     20          6           0       -2.510348    2.373529   -0.257226
     21          6           0       -2.566433    3.073786    1.101522
     22          6           0        2.510339    2.373497    0.257299
     23          6           0        2.566508    3.073929   -1.101357
     24          1           0        0.000014    1.909040   -0.000214
     25          1           0       -4.060576   -3.280313    0.063971
     26          1           0       -6.427238   -2.522132   -0.049094
     27          1           0       -6.962056   -0.106514   -0.191342
     28          1           0       -5.176748    1.590213   -0.228130
     29          1           0        4.060566   -3.280345   -0.063815
     30          1           0        6.427230   -2.522156    0.049231
     31          1           0        6.962048   -0.106532    0.191339
     32          1           0        5.176733    1.590201    0.228019
     33          1           0       -1.657488    2.708489   -0.852128
     34          1           0       -3.398115    2.597174   -0.852215
     35          1           0       -3.441185    2.752064    1.674572
     36          1           0       -1.673838    2.863356    1.699082
     37          1           0       -2.634230    4.156364    0.954302
     38          1           0        1.657436    2.708379    0.852183
     39          1           0        3.398074    2.597059    0.852370
     40          1           0        3.441334    2.752344   -1.674368
     41          1           0        1.673988    2.863510   -1.699033
     42          1           0        2.634214    4.156493   -0.953990
 ---------------------------------------------------------------------
 Rotational constants (GHZ):           0.5197631           0.1187459           0.0985340
 Standard basis: def2TZVP (5D, 7F)
 There are   954 symmetry adapted cartesian basis functions of A   symmetry.
 There are   839 symmetry adapted basis functions of A   symmetry.
   839 basis functions,  1361 primitive gaussians,   954 cartesian basis functions
    89 alpha electrons       89 beta electrons
       nuclear repulsion energy      2127.8579715027 Hartrees.
 NAtoms=   42 NActive=   42 NUniq=   42 SFac= 1.00D+00 NAtFMM=   60 NAOKFM=F Big=F
 Integral buffers will be    131072 words long.
 Regular integral format.
 Two-electron integral symmetry is turned on.
 ------------------------------------------------------------------------------
 Polarizable Continuum Model (PCM)
 =================================
 Model                : PCM.
 Atomic radii         : SMD-Coulomb.
 Polarization charges : Total charges.
 Charge compensation  : None.
 Solution method      : On-the-fly selection.
 Cavity type          : VdW (van der Waals Surface) (Alpha=1.000).
 Cavity algorithm     : GePol (No added spheres)
                        Default sphere list used, NSphG=   42.
                        Lebedev-Laikov grids with approx.  5.0 points / Ang**2.
                        Smoothing algorithm: York/Karplus (Gamma=1.0000).
                        Polarization charges: spherical gaussians, with
                                              point-specific exponents (IZeta= 3).
                        Self-potential: point-specific (ISelfS= 7).
                        Self-field    : sphere-specific E.n sum rule (ISelfD= 2).
 Solvent              : Ethanol, Eps=  24.852000 Eps(inf)=   1.852593
 ------------------------------------------------------------------------------
 ------------------------------------------------------------------------------
 Atomic radii for non-electrostatic terms: SMD-CDS.
 ------------------------------------------------------------------------------
 Nuclear repulsion after PCM non-electrostatic terms =     2127.8526197948 Hartrees.
 One-electron integrals computed using PRISM.
   1 Symmetry operations used in ECPInt.
 ECPInt:  NShTT=   55611 NPrTT=  173757 LenC2=   45262 LenP2D=   98157.
 LDataN:  DoStor=T MaxTD1= 6 Len=  172
 NBasis=   839 RedAO= T EigKep=  6.97D-06  NBF=   839
 NBsUse=   839 1.00D-06 EigRej= -1.00D+00 NBFU=   839
 ExpMin= 9.52D-02 ExpMax= 6.07D+04 ExpMxC= 2.07D+03 IAcc=3 IRadAn=         5 AccDes= 0.00D+00
 Harris functional with IExCor=  402 and IRadAn=       5 diagonalized for initial guess.
 HarFok:  IExCor=  402 AccDes= 0.00D+00 IRadAn=         5 IDoV= 1 UseB2=F ITyADJ=14
 ICtDFT=  3500011 ScaDFX=  1.000000  1.000000  1.000000  1.000000
 FoFCou: FMM=F IPFlag=           0 FMFlag=      100000 FMFlg1=           0
         NFxFlg=           0 DoJE=T BraDBF=F KetDBF=T FulRan=T
         wScrn=  0.000000 ICntrl=       500 IOpCl=  0 I1Cent=   200000004 NGrid=           0
         NMat0=    1 NMatS0=      1 NMatT0=    0 NMatD0=    1 NMtDS0=    0 NMtDT0=    0
 Petite list used in FoFCou.
 Requested convergence on RMS density matrix=1.00D-08 within 128 cycles.
 Requested convergence on MAX density matrix=1.00D-06.
 Requested convergence on             energy=1.00D-06.
 No special actions if energy rises.
 Inv3:  Mode=1 IEnd=    30470907.
 Iteration    1 A*A^-1 deviation from unit magnitude is 3.11D-15 for   3042.
 Iteration    1 A*A^-1 deviation from orthogonality  is 1.89D-15 for   1979     64.
 Iteration    1 A^-1*A deviation from unit magnitude is 4.00D-15 for   3042.
 Iteration    1 A^-1*A deviation from orthogonality  is 3.93D-09 for   2621   2551.
 Iteration    2 A*A^-1 deviation from unit magnitude is 2.44D-15 for    154.
 Iteration    2 A*A^-1 deviation from orthogonality  is 4.64D-15 for   1512    703.
 Iteration    2 A^-1*A deviation from unit magnitude is 1.89D-15 for   2851.
 Iteration    2 A^-1*A deviation from orthogonality  is 1.15D-15 for   1067    948.
 Error on total polarization charges =  0.06116
 SCF Done:  E(RB3LYP) =  -1641.61145217     A.U. after   12 cycles
            NFock= 12  Conv=0.96D-08     -V/T= 2.0039
 SMD-CDS (non-electrostatic) energy       (kcal/mol) =      -3.36
 (included in total energy above)
 DoSCS=F DFT=T ScalE2(SS,OS)=  1.000000  1.000000
 ExpMin= 9.52D-02 ExpMax= 6.07D+04 ExpMxC= 2.07D+03 IAcc=3 IRadAn=         5 AccDes= 0.00D+00
 HarFok:  IExCor=  205 AccDes= 0.00D+00 IRadAn=         5 IDoV=-2 UseB2=F ITyADJ=14
 ICtDFT= 12500011 ScaDFX=  1.000000  1.000000  1.000000  1.000000
 GSVD:  LWork=       -1209 too small for GESVD, short by        5270 words or        5270 for optimal perf.
 Range of M.O.s used for correlation:    32   839
 NBasis=   839 NAE=    89 NBE=    89 NFC=    31 NFV=     0
 NROrb=    808 NOA=    58 NOB=    58 NVA=   750 NVB=   750

 **** Warning!!: The largest alpha MO coefficient is  0.45676096D+02

 NEqPCM:  Using non-equilibrium solvation (IEInf=1, Eps=  24.8520, EpsInf=   1.8526)
 Inv3:  Mode=1 IEnd=    30470907.
 Iteration    1 A*A^-1 deviation from unit magnitude is 3.55D-15 for    249.
 Iteration    1 A*A^-1 deviation from orthogonality  is 2.22D-15 for   2220    596.
 Iteration    1 A^-1*A deviation from unit magnitude is 3.66D-15 for   1790.
 Iteration    1 A^-1*A deviation from orthogonality  is 2.87D-15 for   1067    948.
 Orbital symmetries:
       Occupied  (A) (A) (A) (A) (A) (A) (A) (A) (A) (A) (A) (A)
                 (A) (A) (A) (A) (A) (A) (A) (A) (A) (A) (A) (A)
                 (A) (A) (A) (A) (A) (A) (A) (A) (A) (A) (A) (A)
                 (A) (A) (A) (A) (A) (A) (A) (A) (A) (A) (A) (A)
                 (A) (A) (A) (A) (A) (A) (A) (A) (A) (A) (A) (A)
                 (A) (A) (A) (A) (A) (A) (A) (A) (A) (A) (A) (A)
                 (A) (A) (A) (A) (A) (A) (A) (A) (A) (A) (A) (A)
                 (A) (A) (A) (A) (A)
       Virtual   (A) (A) (A) (A) (A) (A) (A) (A) (A) (A) (A) (A)
                 (A) (A) (A) (A) (A) (A) (A) (A) (A) (A) (A) (A)
                 (A) (A) (A) (A) (A) (A) (A) (A) (A) (A) (A) (A)
                 (A) (A) (A) (A) (A) (A) (A) (A) (A) (A) (A) (A)
                 (A) (A) (A) (A) (A) (A) (A) (A) (A) (A) (A) (A)
                 (A) (A) (A) (A) (A) (A) (A) (A) (A) (A) (A) (A)
                 (A) (A) (A) (A) (A) (A) (A) (A) (A) (A) (A) (A)
                 (A) (A) (A) (A) (A) (A) (A) (A) (A) (A) (A) (A)
                 (A) (A) (A) (A) (A) (A) (A) (A) (A) (A) (A) (A)
                 (A) (A) (A) (A) (A) (A) (A) (A) (A) (A) (A) (A)
                 (A) (A) (A) (A) (A) (A) (A) (A) (A) (A) (A) (A)
                 (A) (A) (A) (A) (A) (A) (A) (A) (A) (A) (A) (A)
                 (A) (A) (A) (A) (A) (A) (A) (A) (A) (A) (A) (A)
                 (A) (A) (A) (A) (A) (A) (A) (A) (A) (A) (A) (A)
                 (A) (A) (A) (A) (A) (A) (A) (A) (A) (A) (A) (A)
                 (A) (A) (A) (A) (A) (A) (A) (A) (A) (A) (A) (A)
                 (A) (A) (A) (A) (A) (A) (A) (A) (A) (A) (A) (A)
                 (A) (A) (A) (A) (A) (A) (A) (A) (A) (A) (A) (A)
                 (A) (A) (A) (A) (A) (A) (A) (A) (A) (A) (A) (A)
                 (A) (A) (A) (A) (A) (A) (A) (A) (A) (A) (A) (A)
                 (A) (A) (A) (A) (A) (A) (A) (A) (A) (A) (A) (A)
                 (A) (A) (A) (A) (A) (A) (A) (A) (A) (A) (A) (A)
                 (A) (A) (A) (A) (A) (A) (A) (A) (A) (A) (A) (A)
                 (A) (A) (A) (A) (A) (A) (A) (A) (A) (A) (A) (A)
                 (A) (A) (A) (A) (A) (A) (A) (A) (A) (A) (A) (A)
                 (A) (A) (A) (A) (A) (A) (A) (A) (A) (A) (A) (A)
                 (A) (A) (A) (A) (A) (A) (A) (A) (A) (A) (A) (A)
                 (A) (A) (A) (A) (A) (A) (A) (A) (A) (A) (A) (A)
                 (A) (A) (A) (A) (A) (A) (A) (A) (A) (A) (A) (A)
                 (A) (A) (A) (A) (A) (A) (A) (A) (A) (A) (A) (A)
                 (A) (A) (A) (A) (A) (A) (A) (A) (A) (A) (A) (A)
                 (A) (A) (A) (A) (A) (A) (A) (A) (A) (A) (A) (A)
                 (A) (A) (A) (A) (A) (A) (A) (A) (A) (A) (A) (A)
                 (A) (A) (A) (A) (A) (A) (A) (A) (A) (A) (A) (A)
                 (A) (A) (A) (A) (A) (A) (A) (A) (A) (A) (A) (A)
                 (A) (A) (A) (A) (A) (A) (A) (A) (A) (A) (A) (A)
                 (A) (A) (A) (A) (A) (A) (A) (A) (A) (A) (A) (A)
                 (A) (A) (A) (A) (A) (A) (A) (A) (A) (A) (A) (A)
                 (A) (A) (A) (A) (A) (A) (A) (A) (A) (A) (A) (A)
                 (A) (A) (A) (A) (A) (A) (A) (A) (A) (A) (A) (A)
                 (A) (A) (A) (A) (A) (A) (A) (A) (A) (A) (A) (A)
                 (A) (A) (A) (A) (A) (A) (A) (A) (A) (A) (A) (A)
                 (A) (A) (A) (A) (A) (A) (A) (A) (A) (A) (A) (A)
                 (A) (A) (A) (A) (A) (A) (A) (A) (A) (A) (A) (A)
                 (A) (A) (A) (A) (A) (A) (A) (A) (A) (A) (A) (A)
                 (A) (A) (A) (A) (A) (A) (A) (A) (A) (A) (A) (A)
                 (A) (A) (A) (A) (A) (A) (A) (A) (A) (A) (A) (A)
                 (A) (A) (A) (A) (A) (A) (A) (A) (A) (A) (A) (A)
                 (A) (A) (A) (A) (A) (A) (A) (A) (A) (A) (A) (A)
                 (A) (A) (A) (A) (A) (A) (A) (A) (A) (A) (A) (A)
                 (A) (A) (A) (A) (A) (A) (A) (A) (A) (A) (A) (A)
                 (A) (A) (A) (A) (A) (A) (A) (A) (A) (A) (A) (A)
                 (A) (A) (A) (A) (A) (A) (A) (A) (A) (A) (A) (A)
                 (A) (A) (A) (A) (A) (A) (A) (A) (A) (A) (A) (A)
                 (A) (A) (A) (A) (A) (A) (A) (A) (A) (A) (A) (A)
                 (A) (A) (A) (A) (A) (A) (A) (A) (A) (A) (A) (A)
                 (A) (A) (A) (A) (A) (A) (A) (A) (A) (A) (A) (A)
                 (A) (A) (A) (A) (A) (A) (A) (A) (A) (A) (A) (A)
                 (A) (A) (A) (A) (A) (A) (A) (A) (A) (A) (A) (A)
                 (A) (A) (A) (A) (A) (A) (A) (A) (A) (A) (A) (A)
                 (A) (A) (A) (A) (A) (A) (A) (A) (A) (A) (A) (A)
                 (A) (A) (A) (A) (A) (A) (A) (A) (A) (A) (A) (A)
                 (A) (A) (A) (A) (A) (A)
   600 initial guesses have been made.
 Convergence on wavefunction:    0.001000000000000
 Iteration     1 Dimension   600 NMult     0 NNew    600
 CISAX will form   224 AO SS matrices at one time.
 New state      2 was old state      3
 New state      3 was old state      2
 New state      6 was old state      7
 New state      7 was old state      6
 New state      9 was old state     10
 New state     10 was old state      9
 New state     11 was old state     14
 New state     13 was old state     11
 New state     14 was old state     17
 New state     15 was old state     13
 New state     16 was old state     19
 New state     17 was old state     15
 New state     18 was old state     16
 New state     19 was old state     22
 New state     20 was old state     26
 New state     21 was old state     27
 New state     22 was old state     21
 New state     23 was old state     20
 New state     24 was old state     25
 New state     25 was old state     31
 New state     26 was old state     18
 New state     27 was old state     32
 New state     28 was old state     23
 New state     29 was old state     34
 New state     30 was old state     35
 New state     31 was old state     29
 New state     32 was old state     36
 New state     34 was old state     37
 New state     35 was old state     39
 New state     36 was old state     47
 New state     37 was old state     38
 New state     38 was old state     30
 New state     39 was old state     41
 New state     40 was old state     42
 New state     41 was old state     53
 New state     42 was old state     44
 New state     43 was old state     46
 New state     44 was old state     60
 New state     45 was old state     40
 New state     46 was old state     45
 New state     47 was old state     50
 New state     48 was old state     49
 New state     49 was old state     54
 New state     50 was old state     51
 New state     51 was old state     52
 New state     52 was old state     55
 New state     53 was old state     61
 New state     54 was old state     48
 New state     55 was old state     56
 New state     56 was old state     64
 New state     57 was old state     59
 New state     58 was old state     57
 New state     59 was old state     43
 New state     60 was old state     62
 New state     61 was old state     67
 New state     62 was old state     65
 New state     63 was old state     70
 New state     64 was old state     71
 New state     65 was old state     63
 New state     67 was old state     72
 New state     68 was old state     69
 New state     69 was old state     86
 New state     70 was old state     80
 New state     71 was old state     95
 New state     72 was old state     76
 New state     73 was old state     83
 New state     74 was old state     81
 New state     75 was old state     77
 New state     76 was old state     85
 New state     77 was old state     87
 New state     78 was old state     74
 New state     80 was old state     68
 New state     81 was old state     73
 New state     82 was old state     84
 New state     83 was old state     58
 New state     84 was old state     78
 New state     85 was old state     90
 New state     86 was old state     89
 New state     87 was old state     88
 New state     88 was old state     75
 New state     89 was old state    111
 New state     90 was old state     93
 New state     91 was old state    100
 New state     93 was old state    130
 New state     94 was old state     91
 New state     95 was old state    132
 New state     96 was old state     97
 New state     97 was old state     98
 New state     98 was old state     96
 New state     99 was old state    112
 New state    100 was old state    108
 New state    101 was old state     94
 New state    102 was old state    103
 New state    103 was old state     82
 New state    105 was old state    117
 New state    106 was old state     99
 New state    107 was old state    101
 New state    108 was old state    110
 New state    110 was old state    127
 New state    111 was old state    102
 New state    112 was old state    105
 New state    113 was old state    114
 New state    114 was old state    106
 New state    115 was old state    120
 New state    116 was old state    137
 New state    117 was old state    116
 New state    119 was old state    113
 New state    120 was old state    115
 New state    121 was old state    124
 New state    123 was old state    125
 New state    124 was old state    119
 New state    125 was old state    126
 New state    126 was old state    135
 New state    127 was old state    133
 New state    128 was old state    123
 New state    129 was old state    143
 New state    130 was old state    131
 New state    131 was old state    164
 New state    132 was old state    128
 New state    133 was old state    129
 New state    134 was old state    179
 New state    135 was old state    140
 New state    137 was old state    149
 New state    138 was old state    150
 New state    139 was old state    160
 New state    140 was old state    138
 New state    141 was old state    121
 New state    142 was old state    154
 New state    143 was old state    139
 New state    144 was old state    142
 New state    145 was old state    153
 New state    146 was old state    166
 New state    147 was old state    134
 New state    148 was old state    152
 New state    149 was old state    141
 New state    150 was old state    156
 Iteration     2 Dimension   900 NMult   600 NNew    300
 New state      9 was old state     10
 New state     10 was old state      9
 New state     15 was old state     16
 New state     16 was old state     15
 New state     17 was old state     18
 New state     18 was old state     17
 New state     20 was old state     22
 New state     21 was old state     20
 New state     22 was old state     21
 New state     23 was old state     28
 New state     24 was old state     26
 New state     25 was old state     23
 New state     26 was old state     24
 New state     27 was old state     25
 New state     28 was old state     31
 New state     29 was old state     32
 New state     30 was old state     27
 New state     31 was old state     29
 New state     32 was old state     30
 New state     33 was old state     40
 New state     34 was old state     33
 New state     35 was old state     38
 New state     36 was old state     34
 New state     37 was old state     35
 New state     38 was old state     36
 New state     39 was old state     37
 New state     40 was old state     39
 New state     43 was old state     50
 New state     44 was old state     43
 New state     46 was old state     44
 New state     47 was old state     49
 New state     48 was old state     46
 New state     49 was old state     48
 New state     50 was old state     47
 New state     52 was old state     53
 New state     53 was old state     52
 New state     54 was old state     60
 New state     55 was old state     54
 New state     56 was old state     61
 New state     57 was old state     59
 New state     58 was old state     55
 New state     59 was old state     56
 New state     60 was old state     57
 New state     61 was old state     58
 New state     64 was old state     66
 New state     65 was old state     64
 No map to state     66
 New state     67 was old state     72
 New state     68 was old state     65
 New state     69 was old state     67
 New state     70 was old state     68
 New state     71 was old state     69
 New state     72 was old state     79
 New state     73 was old state     71
 New state     74 was old state     80
 New state     75 was old state     70
 New state     76 was old state     91
 New state     77 was old state     74
 New state     78 was old state     73
 New state     79 was old state     75
 New state     80 was old state     77
 New state     81 was old state     78
 New state     82 was old state     76
 New state     83 was old state     87
 New state     84 was old state     83
 New state     85 was old state     82
 New state     86 was old state     84
 New state     87 was old state     85
 New state     89 was old state     86
 New state     90 was old state     89
 New state     91 was old state     90
 New state     94 was old state    101
 New state     95 was old state     94
 New state     96 was old state     95
 New state     98 was old state     96
 New state     99 was old state     98
 New state    100 was old state     99
 New state    101 was old state    107
 New state    102 was old state    105
 New state    103 was old state    102
 New state    104 was old state    108
 New state    105 was old state    100
 New state    106 was old state    103
 New state    107 was old state    113
 New state    108 was old state    104
 New state    109 was old state    106
 New state    110 was old state    109
 New state    111 was old state    110
 New state    112 was old state    114
 New state    113 was old state    111
 New state    114 was old state    112
 New state    115 was old state    118
 New state    117 was old state    115
 New state    118 was old state    123
 New state    119 was old state    117
 New state    121 was old state    119
 New state    122 was old state    125
 New state    123 was old state    136
 New state    124 was old state    122
 New state    125 was old state    124
 New state    126 was old state    121
 New state    128 was old state    138
 New state    129 was old state    128
 New state    130 was old state    126
 New state    131 was old state    129
 New state    132 was old state    130
 New state    133 was old state    131
 New state    134 was old state    132
 New state    135 was old state    134
 New state    136 was old state    133
 New state    137 was old state    139
 New state    138 was old state    135
 New state    139 was old state    145
 New state    140 was old state    137
 New state    141 was old state    142
 New state    142 was old state    143
 New state    143 was old state    140
 New state    144 was old state    146
 New state    145 was old state    144
 New state    146 was old state    141
 New state    147 was old state    150
 New state    148 was old state    147
 New state    149 was old state    148
 New state    150 was old state    149
 Iteration     3 Dimension  1200 NMult   900 NNew    300
 New state     55 was old state     56
 New state     56 was old state     55
 Iteration     4 Dimension  1464 NMult  1200 NNew    264
 Iteration     5 Dimension  1506 NMult  1464 NNew     42
 Iteration     6 Dimension  1510 NMult  1506 NNew      4
 ***********************************************************************
 Excited states from <AA,BB:AA,BB> singles matrix:
 ***********************************************************************
 
 Ground to excited state transition densities written to RWF  633
 Ground to excited state transition electric dipole moments (Au):
       state          X           Y           Z        Dip. S.      Osc.
         1        -3.9457     -0.0000     -0.0323     15.5697      1.2009
         2         0.0759     -0.0000      0.0420      0.0075      0.0007
         3        -0.0000      0.4544     -0.0000      0.2065      0.0206
         4        -0.2309     -0.0000     -0.0152      0.0536      0.0055
         5        -0.0000      0.6095     -0.0000      0.3715      0.0398
         6        -0.5814      0.0000     -0.0511      0.3406      0.0375
         7        -0.0000      0.0578     -0.0000      0.0033      0.0004
         8         0.0000     -0.8385      0.0000      0.7031      0.0820
         9         0.1651     -0.0000      0.0177      0.0276      0.0033
        10        -0.0000      0.0110     -0.0000      0.0001      0.0000
        11         0.0000      0.0235     -0.0000      0.0006      0.0001
        12        -0.2454     -0.0000      0.0029      0.0602      0.0076
        13        -1.3708      0.0000     -0.0069      1.8790      0.2443
        14        -0.0001      0.0523      0.0000      0.0027      0.0004
        15         0.8428     -0.0004     -0.0111      0.7104      0.0979
        16         0.6482      0.0001     -0.0031      0.4201      0.0580
        17         0.0003      1.0969     -0.0000      1.2031      0.1664
        18         0.0001      0.7130     -0.0000      0.5083      0.0713
        19        -0.0001      0.1489      0.0000      0.0222      0.0032
        20        -0.0005     -0.3460      0.0006      0.1197      0.0171
        21         0.1077     -0.0011     -0.1119      0.0241      0.0035
        22        -0.1876      0.0006      0.1496      0.0576      0.0083
        23        -0.0001      0.1065     -0.0001      0.0113      0.0017
        24        -1.2104      0.0000      0.0233      1.4656      0.2162
        25        -1.6030     -0.0000     -0.1095      2.5815      0.3856
        26        -0.0001     -0.1700     -0.0000      0.0289      0.0044
        27        -0.1307     -0.0001      0.1112      0.0294      0.0045
        28        -0.8984     -0.0000     -0.0612      0.8108      0.1250
        29         0.0001     -0.1254      0.0000      0.0157      0.0024
        30        -0.3456     -0.0000     -0.0882      0.1272      0.0197
        31        -0.1162      0.0000      0.0400      0.0151      0.0024
        32        -0.5460      0.0000     -0.0630      0.3021      0.0476
        33         1.2889     -0.0001      0.0608      1.6649      0.2632
        34         0.0001      0.9894     -0.0000      0.9790      0.1565
        35         0.0001     -0.2508      0.0000      0.0629      0.0101
        36         0.0000      0.0356     -0.0000      0.0013      0.0002
        37         0.1385     -0.0000     -0.0262      0.0199      0.0032
        38        -0.0001     -0.1184      0.0000      0.0140      0.0023
        39         0.0000     -0.1853      0.0000      0.0343      0.0057
        40        -0.0629     -0.0000      0.0479      0.0063      0.0010
        41         0.2418      0.0000     -0.0288      0.0593      0.0099
        42        -0.2063      0.0000     -0.0313      0.0435      0.0073
        43        -0.0001     -0.2224     -0.0000      0.0495      0.0083
        44         0.0000     -0.1410     -0.0000      0.0199      0.0034
        45        -0.4934      0.0001      0.0062      0.2435      0.0413
        46         0.0007      0.1356      0.0000      0.0184      0.0031
        47         1.0668     -0.0000      0.0451      1.1402      0.1944
        48         0.0001      0.0964      0.0000      0.0093      0.0016
        49        -0.0001     -0.1422     -0.0000      0.0202      0.0035
        50        -0.0742      0.0000      0.0981      0.0151      0.0026
        51         0.0001      0.1636      0.0000      0.0268      0.0046
        52        -0.0001     -0.0837      0.0001      0.0070      0.0012
        53        -0.0145     -0.0001     -0.0558      0.0033      0.0006
        54         0.0004     -0.3575      0.0000      0.1278      0.0224
        55         0.8386      0.0001      0.0158      0.7036      0.1238
        56        -0.0029     -0.0062     -0.0000      0.0000      0.0000
        57         0.0001     -0.0151      0.0000      0.0002      0.0000
        58        -0.0215     -0.0000      0.0530      0.0033      0.0006
        59         0.0005     -0.0593      0.0005      0.0035      0.0006
        60        -0.2331     -0.0002     -0.2041      0.0960      0.0172
        61         0.1407      0.0001      0.0669      0.0243      0.0044
        62        -0.0000      1.6470     -0.0000      2.7127      0.4945
        63        -0.0716     -0.0012     -0.0064      0.0052      0.0009
        64         0.3187      0.0016     -0.0685      0.1063      0.0195
        65         0.0006     -0.9126     -0.0000      0.8328      0.1525
        66         0.0004     -0.2409     -0.0000      0.0580      0.0107
        67        -1.4557     -0.0001      0.0292      2.1199      0.3903
        68        -0.0003      0.3208     -0.0000      0.1029      0.0190
        69        -0.1835     -0.0001      0.0879      0.0414      0.0076
        70        -0.0283      0.0001     -0.2540      0.0653      0.0122
        71        -0.0001      0.2119      0.0001      0.0449      0.0084
        72        -0.0712     -0.0003      0.0075      0.0051      0.0010
        73         0.3332      0.0001      0.0910      0.1193      0.0223
        74         0.0936      0.0000      0.2008      0.0491      0.0092
        75        -0.0000      0.1607      0.0000      0.0258      0.0049
        76         0.0002     -0.6022     -0.0000      0.3626      0.0685
        77         0.1742      0.0001     -0.0140      0.0305      0.0058
        78        -0.0001      0.0404      0.0001      0.0016      0.0003
        79         0.0000      0.0241     -0.0000      0.0006      0.0001
        80         0.0002     -0.0357     -0.0000      0.0013      0.0002
        81         0.0422      0.0001     -0.1230      0.0169      0.0032
        82         0.0000     -0.1264     -0.0001      0.0160      0.0031
        83         0.6307      0.0001     -0.0508      0.4004      0.0769
        84        -0.0281     -0.0001      0.0519      0.0035      0.0007
        85        -0.0001      0.0506      0.0001      0.0026      0.0005
        86        -0.0000     -0.1104      0.0000      0.0122      0.0024
        87        -0.0035     -0.0001     -0.1804      0.0326      0.0063
        88        -0.0001      0.3714     -0.0000      0.1379      0.0268
        89        -0.0000      0.1249      0.0000      0.0156      0.0030
        90         0.0000      0.1849     -0.0000      0.0342      0.0067
        91         0.0156     -0.0000     -0.1073      0.0118      0.0023
        92        -0.0314      0.0001     -0.0553      0.0040      0.0008
        93         0.0523      0.0001      0.0920      0.0112      0.0022
        94        -0.0703     -0.0001      0.0211      0.0054      0.0011
        95         0.0000     -0.1395     -0.0000      0.0195      0.0038
        96         0.0001      0.1483     -0.0000      0.0220      0.0044
        97        -0.0624      0.0001      0.0377      0.0053      0.0011
        98        -0.3327     -0.0001     -0.0986      0.1204      0.0239
        99         0.0005     -0.0266     -0.0001      0.0007      0.0001
       100         0.1027      0.0002     -0.0228      0.0111      0.0022
       101        -0.0000      0.3076     -0.0000      0.0946      0.0188
       102        -0.0701     -0.0001     -0.0625      0.0088      0.0018
       103         0.0008     -0.0914      0.0000      0.0084      0.0017
       104        -0.0764     -0.0008      0.0019      0.0058      0.0012
       105        -0.0002      0.0429     -0.0001      0.0018      0.0004
       106        -0.2132     -0.0001     -0.0630      0.0494      0.0099
       107         0.0000     -0.2053      0.0000      0.0422      0.0085
       108         0.0000     -0.0118     -0.0000      0.0001      0.0000
       109         0.0000      0.0564     -0.0000      0.0032      0.0006
       110        -0.0462      0.0001      0.0258      0.0028      0.0006
       111        -0.0001     -0.1540      0.0000      0.0237      0.0048
       112         0.0001      0.2121     -0.0000      0.0450      0.0091
       113         0.0243      0.0195     -0.1433      0.0215      0.0044
       114         0.0068     -0.0689     -0.0404      0.0064      0.0013
       115         0.0399     -0.0000      0.0906      0.0098      0.0020
       116        -0.0003     -0.0654     -0.0000      0.0043      0.0009
       117        -0.1267      0.0000     -0.0177      0.0164      0.0034
       118        -0.0002     -0.1784      0.0000      0.0318      0.0065
       119         0.1190      0.0016     -0.0671      0.0187      0.0038
       120         0.0008     -0.6291     -0.0001      0.3957      0.0813
       121         0.2760      0.0011      0.0059      0.0762      0.0157
       122         0.0061      0.0002      0.0544      0.0030      0.0006
       123         0.0001     -0.5186      0.0000      0.2690      0.0554
       124        -0.0699      0.0004     -0.0258      0.0056      0.0011
       125         0.0001      0.2422      0.0015      0.0587      0.0121
       126         0.0083     -0.0026      0.1286      0.0166      0.0034
       127        -0.0001     -0.0564      0.0001      0.0032      0.0007
       128        -0.1338      0.0000      0.0479      0.0202      0.0042
       129        -0.0853     -0.0003      0.0343      0.0085      0.0018
       130        -0.0022      0.0246      0.0009      0.0006      0.0001
       131        -0.0837      0.0000     -0.1305      0.0240      0.0050
       132         0.0001      0.0722     -0.0000      0.0052      0.0011
       133        -0.0000     -0.0258      0.0001      0.0007      0.0001
       134         0.0001     -0.0279     -0.0001      0.0008      0.0002
       135         0.0065     -0.0000     -0.0811      0.0066      0.0014
       136        -0.2141      0.0001     -0.0358      0.0471      0.0099
       137        -0.0001     -0.0760     -0.0000      0.0058      0.0012
       138         0.0306     -0.0000     -0.0038      0.0009      0.0002
       139         0.0000      0.2175      0.0000      0.0473      0.0100
       140         0.0199     -0.0002      0.0441      0.0023      0.0005
       141         0.0753     -0.0000     -0.0774      0.0117      0.0025
       142        -0.0000      0.1964      0.0002      0.0386      0.0082
       143        -0.0601     -0.0005      0.1116      0.0161      0.0034
       144        -0.1009      0.0000     -0.0083      0.0103      0.0022
       145        -0.0422     -0.0002     -0.0255      0.0024      0.0005
       146        -0.0001      0.0067      0.0000      0.0000      0.0000
       147         0.0004      0.1365     -0.0003      0.0186      0.0040
       148         0.1924     -0.0002     -0.1435      0.0576      0.0123
       149        -0.0975      0.0001     -0.0168      0.0098      0.0021
       150        -0.0001      0.1397     -0.0000      0.0195      0.0042
 Ground to excited state transition velocity dipole moments (Au):
       state          X           Y           Z        Dip. S.      Osc.
         1         0.4536     -0.0000      0.0041      0.2058      1.1856
         2        -0.0109      0.0000     -0.0070      0.0002      0.0008
         3         0.0000     -0.0679      0.0000      0.0046      0.0206
         4         0.0360      0.0000      0.0024      0.0013      0.0056
         5         0.0000     -0.1004      0.0000      0.0101      0.0419
         6         0.0983     -0.0000      0.0080      0.0097      0.0393
         7         0.0000     -0.0085      0.0000      0.0001      0.0003
         8         0.0000      0.1491     -0.0000      0.0222      0.0847
         9        -0.0290      0.0000     -0.0035      0.0009      0.0031
        10         0.0000     -0.0020      0.0000      0.0000      0.0000
        11        -0.0000     -0.0039      0.0000      0.0000      0.0001
        12         0.0465      0.0000     -0.0018      0.0022      0.0076
        13         0.2679     -0.0000      0.0016      0.0718      0.2452
        14         0.0000     -0.0107     -0.0000      0.0001      0.0004
        15        -0.1725      0.0001      0.0024      0.0298      0.0961
        16        -0.1332     -0.0000      0.0003      0.0177      0.0572
        17        -0.0001     -0.2294      0.0000      0.0526      0.1691
        18        -0.0000     -0.1502      0.0000      0.0226      0.0715
        19         0.0000     -0.0330     -0.0000      0.0011      0.0034
        20         0.0001      0.0733     -0.0001      0.0054      0.0167
        21        -0.0241      0.0002      0.0245      0.0012      0.0037
        22         0.0385     -0.0001     -0.0324      0.0025      0.0078
        23         0.0000     -0.0253      0.0000      0.0006      0.0020
        24         0.2673     -0.0000     -0.0055      0.0715      0.2153
        25         0.3567     -0.0000      0.0247      0.1278      0.3803
        26         0.0000      0.0380      0.0000      0.0014      0.0042
        27         0.0289      0.0000     -0.0262      0.0015      0.0044
        28         0.2054      0.0000      0.0145      0.0424      0.1222
        29        -0.0000      0.0301      0.0000      0.0009      0.0026
        30         0.0803      0.0000      0.0193      0.0068      0.0195
        31         0.0273     -0.0000     -0.0098      0.0008      0.0024
        32         0.1298     -0.0000      0.0169      0.0171      0.0483
        33        -0.3079      0.0000     -0.0131      0.0950      0.2670
        34        -0.0000     -0.2377      0.0000      0.0565      0.1571
        35        -0.0000      0.0620     -0.0000      0.0038      0.0106
        36        -0.0000     -0.0088     -0.0000      0.0001      0.0002
        37        -0.0339      0.0000      0.0054      0.0012      0.0032
        38         0.0000      0.0289      0.0000      0.0008      0.0023
        39        -0.0000      0.0469     -0.0000      0.0022      0.0059
        40         0.0154      0.0000     -0.0116      0.0004      0.0010
        41        -0.0596     -0.0000      0.0068      0.0036      0.0096
        42         0.0517     -0.0000      0.0079      0.0027      0.0073
        43         0.0000      0.0555      0.0000      0.0031      0.0081
        44        -0.0000      0.0362      0.0000      0.0013      0.0034
        45         0.1271     -0.0000     -0.0018      0.0162      0.0424
        46        -0.0002     -0.0339     -0.0000      0.0011      0.0030
        47        -0.2728      0.0000     -0.0119      0.0746      0.1944
        48        -0.0000     -0.0237     -0.0000      0.0006      0.0015
        49         0.0000      0.0371      0.0000      0.0014      0.0036
        50         0.0196     -0.0000     -0.0243      0.0010      0.0025
        51        -0.0000     -0.0410     -0.0000      0.0017      0.0043
        52         0.0000      0.0227     -0.0000      0.0005      0.0013
        53         0.0036      0.0000      0.0150      0.0002      0.0006
        54        -0.0001      0.0931     -0.0000      0.0087      0.0220
        55        -0.2213     -0.0000     -0.0041      0.0490      0.1238
        56         0.0008      0.0016      0.0000      0.0000      0.0000
        57        -0.0000      0.0018     -0.0000      0.0000      0.0000
        58         0.0085      0.0000     -0.0140      0.0003      0.0007
        59        -0.0001      0.0157     -0.0001      0.0002      0.0006
        60         0.0630      0.0001      0.0507      0.0065      0.0162
        61        -0.0366     -0.0000     -0.0154      0.0016      0.0039
        62         0.0000     -0.4484      0.0000      0.2011      0.4903
        63         0.0192      0.0003      0.0037      0.0004      0.0009
        64        -0.0895     -0.0004      0.0171      0.0083      0.0202
        65        -0.0002      0.2494      0.0000      0.0622      0.1510
        66        -0.0001      0.0660      0.0000      0.0044      0.0105
        67         0.4048      0.0000     -0.0091      0.1639      0.3956
        68         0.0001     -0.0883      0.0000      0.0078      0.0188
        69         0.0514      0.0000     -0.0205      0.0031      0.0074
        70         0.0098     -0.0000      0.0684      0.0048      0.0114
        71         0.0000     -0.0588     -0.0000      0.0035      0.0083
        72         0.0181      0.0001     -0.0019      0.0003      0.0008
        73        -0.0935     -0.0000     -0.0258      0.0094      0.0223
        74        -0.0265     -0.0000     -0.0555      0.0038      0.0090
        75         0.0000     -0.0445      0.0000      0.0020      0.0047
        76        -0.0000      0.1691     -0.0000      0.0286      0.0672
        77        -0.0496     -0.0000      0.0025      0.0025      0.0058
        78         0.0000     -0.0122     -0.0000      0.0001      0.0004
        79        -0.0000     -0.0073      0.0000      0.0001      0.0001
        80        -0.0001      0.0102      0.0000      0.0001      0.0002
        81        -0.0123     -0.0000      0.0293      0.0010      0.0023
        82        -0.0000      0.0363      0.0000      0.0013      0.0031
        83        -0.1830     -0.0000      0.0147      0.0337      0.0780
        84         0.0071      0.0000     -0.0163      0.0003      0.0007
        85         0.0000     -0.0144     -0.0000      0.0002      0.0005
        86         0.0000      0.0316     -0.0000      0.0010      0.0023
        87         0.0017      0.0000      0.0433      0.0019      0.0043
        88         0.0000     -0.1069      0.0000      0.0114      0.0261
        89         0.0000     -0.0357     -0.0000      0.0013      0.0029
        90        -0.0000     -0.0536      0.0000      0.0029      0.0065
        91        -0.0046      0.0000      0.0274      0.0008      0.0017
        92         0.0092     -0.0000      0.0196      0.0005      0.0011
        93        -0.0166     -0.0000     -0.0226      0.0008      0.0018
        94         0.0220      0.0000     -0.0058      0.0005      0.0012
        95        -0.0000      0.0406      0.0000      0.0017      0.0037
        96        -0.0000     -0.0448      0.0000      0.0020      0.0045
        97         0.0187     -0.0000     -0.0115      0.0005      0.0011
        98         0.0989      0.0000      0.0285      0.0106      0.0237
        99        -0.0002      0.0079      0.0000      0.0001      0.0001
       100        -0.0311     -0.0000      0.0061      0.0010      0.0022
       101         0.0000     -0.0923      0.0000      0.0085      0.0190
       102         0.0213      0.0000      0.0198      0.0008      0.0019
       103        -0.0002      0.0244      0.0000      0.0006      0.0013
       104         0.0219      0.0002     -0.0017      0.0005      0.0011
       105         0.0000     -0.0142      0.0000      0.0002      0.0004
       106         0.0631      0.0000      0.0177      0.0043      0.0095
       107        -0.0000      0.0622     -0.0000      0.0039      0.0086
       108        -0.0000      0.0047      0.0000      0.0000      0.0000
       109        -0.0000     -0.0168      0.0000      0.0003      0.0006
       110         0.0146     -0.0000     -0.0046      0.0002      0.0005
       111         0.0000      0.0473     -0.0000      0.0022      0.0049
       112        -0.0000     -0.0641      0.0000      0.0041      0.0090
       113        -0.0098     -0.0065      0.0410      0.0018      0.0040
       114        -0.0028      0.0232      0.0116      0.0007      0.0015
       115        -0.0108     -0.0000     -0.0284      0.0009      0.0020
       116         0.0001      0.0193      0.0000      0.0004      0.0008
       117         0.0390     -0.0000      0.0056      0.0016      0.0034
       118         0.0001      0.0586     -0.0000      0.0034      0.0074
       119        -0.0375     -0.0005      0.0160      0.0017      0.0036
       120        -0.0002      0.1943      0.0000      0.0378      0.0816
       121        -0.0869     -0.0003     -0.0002      0.0076      0.0163
       122        -0.0018     -0.0001     -0.0137      0.0002      0.0004
       123        -0.0000      0.1572     -0.0000      0.0247      0.0533
       124         0.0215     -0.0001      0.0043      0.0005      0.0010
       125        -0.0000     -0.0731     -0.0004      0.0053      0.0115
       126        -0.0003      0.0008     -0.0372      0.0014      0.0030
       127         0.0000      0.0190     -0.0000      0.0004      0.0008
       128         0.0416     -0.0000     -0.0145      0.0019      0.0041
       129         0.0262      0.0001     -0.0110      0.0008      0.0017
       130         0.0007     -0.0091     -0.0003      0.0001      0.0002
       131         0.0266     -0.0000      0.0383      0.0022      0.0046
       132        -0.0000     -0.0225      0.0000      0.0005      0.0011
       133         0.0000      0.0083     -0.0000      0.0001      0.0001
       134        -0.0000      0.0073      0.0000      0.0001      0.0001
       135        -0.0016      0.0000      0.0238      0.0006      0.0012
       136         0.0659     -0.0000      0.0078      0.0044      0.0093
       137         0.0000      0.0236      0.0000      0.0006      0.0012
       138        -0.0091      0.0000      0.0021      0.0001      0.0002
       139         0.0000     -0.0683     -0.0000      0.0047      0.0098
       140        -0.0054      0.0001     -0.0139      0.0002      0.0005
       141        -0.0232      0.0000      0.0241      0.0011      0.0024
       142         0.0000     -0.0626     -0.0001      0.0039      0.0082
       143         0.0188      0.0002     -0.0366      0.0017      0.0036
       144         0.0319     -0.0000      0.0024      0.0010      0.0021
       145         0.0134      0.0001      0.0082      0.0002      0.0005
       146         0.0000     -0.0023     -0.0000      0.0000      0.0000
       147        -0.0001     -0.0433      0.0001      0.0019      0.0039
       148        -0.0584      0.0001      0.0409      0.0051      0.0106
       149         0.0307     -0.0000      0.0062      0.0010      0.0020
       150         0.0000     -0.0441      0.0000      0.0019      0.0040
 Ground to excited state transition magnetic dipole moments (Au):
       state          X           Y           Z
         1        -0.0246     -0.0001     -0.7068
         2        -0.1860      0.0000     -0.1880
         3        -0.0000     -0.0488      0.0000
         4        -0.0129     -0.0000     -0.1854
         5         0.0000      0.1094     -0.0000
         6        -0.0437      0.0000      1.3625
         7        -0.0000      0.0314      0.0000
         8        -0.0000     -0.0988      0.0000
         9         0.0983     -0.0001     -1.5459
        10        -0.0000     -0.4145      0.0002
        11        -0.0000      0.0716      0.0001
        12         0.2644     -0.0000      0.0410
        13        -0.0315     -0.0001     -0.4548
        14        -0.0000      0.0475     -0.0001
        15        -0.0499      0.0000      1.2635
        16        -0.0075      0.0001      0.5754
        17        -0.0000      0.0662      0.0005
        18         0.0000      0.0499      0.0001
        19        -0.0000      0.0253     -0.0001
        20        -0.0006     -0.0667     -0.0020
        21         0.0959     -0.0002      1.0548
        22        -0.2186      0.0001      0.8472
        23         0.0001      0.1072     -0.0002
        24        -0.0899     -0.0001      0.0288
        25        -0.0139      0.0000      2.1968
        26         0.0000      0.0139      0.0002
        27        -0.1417     -0.0000     -0.1300
        28        -0.0244      0.0001      2.5191
        29        -0.0000     -0.1078     -0.0000
        30        -0.0639      0.0000      0.9095
        31         0.1976     -0.0000     -0.1715
        32        -0.4401     -0.0000     -0.5156
        33        -0.3719     -0.0000      1.0150
        34        -0.0000      0.1171      0.0002
        35         0.0000      0.0882     -0.0000
        36        -0.0000      0.3481     -0.0000
        37         0.2214     -0.0000      0.0773
        38        -0.0000      0.1547      0.0000
        39         0.0000      0.2310     -0.0000
        40        -0.0590      0.0000     -0.1075
        41        -0.1237      0.0000      0.1899
        42         0.0620      0.0000      0.3843
        43         0.0000     -0.0729      0.0002
        44        -0.0000     -0.2307     -0.0001
        45        -0.0907     -0.0002      0.3867
        46         0.0002     -0.0568     -0.0005
        47        -0.0186     -0.0001     -1.1683
        48        -0.0001      0.4804     -0.0002
        49        -0.0001      0.1239      0.0002
        50         0.3808      0.0000     -0.3120
        51        -0.0001      0.0849     -0.0000
        52         0.0010      0.0426     -0.0001
        53        -0.6126      0.0000     -0.0367
        54         0.0000     -0.0731      0.0009
        55        -0.1753     -0.0016      1.3479
        56         0.0006     -0.4569     -0.0048
        57        -0.0000      0.0563      0.0002
        58         0.0499     -0.0000     -0.4587
        59        -0.0001      0.0270      0.0002
        60         0.0410     -0.0000     -0.1153
        61        -0.1410      0.0000     -0.1322
        62        -0.0000      0.0830     -0.0007
        63        -0.3679     -0.0000      2.0807
        64         0.2036      0.0002      2.0995
        65         0.0008     -0.0222     -0.0003
        66         0.0002     -0.1514     -0.0011
        67        -0.0503     -0.0000      3.0053
        68        -0.0000      0.2078     -0.0002
        69        -0.2242     -0.0000      0.2757
        70         0.3550     -0.0003     -0.4957
        71        -0.0003     -0.4581     -0.0005
        72        -0.2340      0.0002     -1.0150
        73        -0.0689      0.0000      1.4630
        74         0.3064     -0.0000     -1.3502
        75        -0.0000     -0.2784      0.0002
        76         0.0001     -0.1968     -0.0003
        77         0.4621      0.0001     -0.0644
        78        -0.0004      0.0457     -0.0000
        79         0.0001     -0.2890     -0.0002
        80        -0.0001     -0.0655     -0.0003
        81        -0.2679     -0.0002      0.0391
        82        -0.0002      0.1691     -0.0000
        83        -0.0130      0.0000     -1.3170
        84        -0.0524      0.0001      0.1991
        85        -0.0001     -0.1562      0.0003
        86        -0.0000      0.1432      0.0001
        87         0.0252      0.0000     -0.1456
        88         0.0000     -0.0468     -0.0000
        89         0.0000     -0.0598      0.0001
        90         0.0000      0.0391     -0.0002
        91        -0.1352     -0.0000      0.4580
        92         0.0668     -0.0000     -0.2282
        93        -0.0551      0.0000      0.3072
        94         0.0074      0.0001     -0.2260
        95         0.0000      0.1395      0.0001
        96         0.0001     -0.4482     -0.0003
        97        -0.2030     -0.0003      0.5204
        98        -0.1358     -0.0001      0.7933
        99         0.0005      0.5709     -0.0035
       100         0.0968     -0.0034     -0.6083
       101        -0.0000     -0.2692      0.0001
       102         0.0909      0.0002      0.2115
       103         0.0008     -0.0501     -0.0012
       104        -0.0747     -0.0006      0.1617
       105        -0.0001      0.4803     -0.0001
       106        -0.2029     -0.0004      0.0406
       107         0.0000     -0.0635      0.0002
       108         0.0001     -0.3710     -0.0000
       109        -0.0000      0.0441      0.0001
       110         0.1394      0.0002     -0.0383
       111        -0.0001      0.1347     -0.0000
       112        -0.0000      0.2359      0.0003
       113         0.3954     -0.0882      0.3539
       114         0.1116      0.3117      0.1001
       115         0.0580     -0.0000      0.3964
       116        -0.0004     -0.0384     -0.0009
       117        -0.1901     -0.0001     -0.3737
       118        -0.0003      0.1072     -0.0002
       119        -0.0120     -0.0004     -0.6519
       120         0.0001      0.1478     -0.0026
       121        -0.0163     -0.0002     -0.6024
       122        -0.1512     -0.0002      0.1215
       123         0.0002     -0.2936     -0.0001
       124         0.0388      0.0002     -0.3929
       125         0.0027     -0.1477      0.0000
       126         0.2407      0.0018      0.0418
       127        -0.0000     -0.5930      0.0001
       128        -0.0371      0.0004     -0.0137
       129         0.1319      0.0143      0.2044
       130         0.0034     -0.5459      0.0053
       131         0.0109     -0.0001      0.2113
       132         0.0001      0.4483      0.0001
       133         0.0003      0.5619     -0.0002
       134        -0.0003      0.4132     -0.0001
       135        -0.4024      0.0002     -0.0782
       136        -0.0592      0.0002     -0.2407
       137        -0.0000     -0.1511      0.0000
       138        -0.0560     -0.0001      0.0340
       139        -0.0000     -0.3386     -0.0001
       140         0.2221      0.0002     -0.0936
       141         0.2992     -0.0000     -1.0729
       142         0.0010     -0.0957      0.0002
       143         0.3868      0.0001      0.2722
       144         0.3549     -0.0000      0.4250
       145        -0.3067     -0.0000     -0.0754
       146         0.0000     -0.0431      0.0000
       147         0.0002      0.0381      0.0004
       148         0.1130     -0.0000      0.1929
       149        -0.0894      0.0000     -0.2390
       150        -0.0000     -0.0040      0.0001
 Ground to excited state transition velocity quadrupole moments (Au):
       state          XX          YY          ZZ          XY          XZ          YZ
         1        -0.0001      0.0000     -0.0000     -0.4960      0.0000     -0.0295
         2         0.0001     -0.0000      0.0000     -0.0059     -0.0000      0.0344
         3         0.0753     -0.0681     -0.0067      0.0000      0.0041     -0.0000
         4        -0.0000     -0.0000     -0.0000      0.2845      0.0000     -0.0189
         5        -1.7836      0.2182      0.0067     -0.0000     -0.0885      0.0000
         6        -0.0002      0.0000     -0.0000      0.4519     -0.0000      0.0040
         7         1.7181      0.0285      0.0057      0.0000      0.0481      0.0000
         8        -1.6556     -0.0927      0.0023      0.0000     -0.0250      0.0000
         9        -0.0001      0.0000      0.0000     -0.8457     -0.0000      0.0113
        10        -0.1841     -0.0034      0.0006      0.0001     -0.0661     -0.0000
        11         0.1503      0.0117      0.0060      0.0001     -0.0656      0.0000
        12        -0.0000      0.0000      0.0000     -0.1218      0.0000     -0.0222
        13         0.0000      0.0000     -0.0000     -0.5628      0.0000     -0.0194
        14        -0.0114      0.0420     -0.0106     -0.0000     -0.0277     -0.0000
        15        -0.0015     -0.0000      0.0000      1.8117     -0.0001      0.0120
        16         0.0005      0.0000     -0.0000      0.7688     -0.0000      0.0166
        17         3.7861      0.1856     -0.0425      0.0007      0.0462     -0.0000
        18         0.7735      0.2613     -0.0105      0.0001     -0.0262      0.0000
        19        -0.2679      0.0508     -0.0145     -0.0002     -0.0251     -0.0000
        20        -1.4999     -0.3213      0.0106     -0.0010     -0.0378     -0.0006
        21        -0.0048     -0.0010      0.0000      0.7148     -0.0001      0.0926
        22         0.0027      0.0007     -0.0000      0.8239      0.0000     -0.1825
        23         1.7950      0.6343     -0.0194     -0.0003     -0.0764      0.0000
        24        -0.0003     -0.0001      0.0000     -0.4990      0.0001     -0.1002
        25        -0.0000     -0.0000      0.0000      0.5315     -0.0000      0.0284
        26        -0.0249      0.1306     -0.0051      0.0001     -0.0146      0.0000
        27         0.0003     -0.0001     -0.0000     -0.2396      0.0000     -0.0883
        28        -0.0001     -0.0001     -0.0000      1.2924     -0.0000      0.0175
        29         7.4739     -0.8858     -0.0264      0.0000      0.2891     -0.0000
        30         0.0003     -0.0001     -0.0000      0.4847      0.0000      0.0934
[...]
    23  C    0.000000  -0.000000  -0.000000   0.000015   0.000010   0.000048
    24  H    0.000002  -0.000006   0.000108   0.000003   0.000002  -0.000006
    25  H   -0.052275   0.011216  -0.005297  -0.000000   0.000000  -0.000000
    26  H    0.441920  -0.050983   0.011161  -0.000000   0.000000  -0.000000
    27  H   -0.048877   0.437422  -0.053890  -0.000000  -0.000000   0.000000
    28  H    0.007010  -0.034691   0.431372   0.000000  -0.000000   0.000000
    29  H    0.000000  -0.000000   0.000000   0.449752  -0.052275   0.011216
    30  H    0.000000  -0.000000   0.000000  -0.057108   0.441919  -0.050983
    31  H   -0.000000   0.000000   0.000000   0.010108  -0.048876   0.437422
    32  H   -0.000000   0.000000  -0.000000  -0.001443   0.007009  -0.034689
    33  H    0.000019  -0.000082   0.001361   0.000000  -0.000000   0.000000
    34  H   -0.000255   0.002344   0.005097  -0.000000   0.000000  -0.000000
    35  H    0.000031   0.000074   0.003437   0.000000  -0.000000   0.000000
    36  H   -0.000007   0.000033   0.000336  -0.000000   0.000000  -0.000000
    37  H    0.000002  -0.000007  -0.000027  -0.000000   0.000000  -0.000000
    38  H   -0.000000   0.000000  -0.000001  -0.000036   0.000019  -0.000082
    39  H    0.000000  -0.000000   0.000000   0.000299  -0.000255   0.002342
    40  H   -0.000000   0.000000  -0.000000  -0.000043   0.000031   0.000074
    41  H    0.000000  -0.000000   0.000000   0.000024  -0.000007   0.000033
    42  H    0.000000  -0.000000   0.000000  -0.000003   0.000002  -0.000007
              19         20         21         22         23         24
     1  C   -0.000077  -0.055630  -0.000782   0.003106   0.001059  -0.018992
     2  C    0.000370  -0.005637  -0.000423  -0.005634  -0.000418   0.389152
     3  C    0.001637   0.003117   0.001055  -0.055637  -0.000785  -0.018969
     4  N   -0.070350   0.000074   0.000021   0.253066  -0.039307  -0.007066
     5  S    0.000046   0.004468  -0.000453   0.000014  -0.000010   0.004330
     6  C    0.000001   0.010029   0.000856   0.000008   0.000001  -0.000492
     7  C   -0.000000  -0.047911   0.000870  -0.000025   0.000003   0.000394
     8  N   -0.000001   0.253062  -0.039307   0.000074   0.000021  -0.007065
     9  S    0.028407   0.000014  -0.000010   0.004468  -0.000453   0.004330
    10  C    0.052809   0.000008   0.000001   0.010026   0.000855  -0.000492
    11  C    0.285444  -0.000025   0.000003  -0.047912   0.000870   0.000394
    12  C    0.000000  -0.000074   0.000015   0.000000  -0.000000   0.000003
    13  C   -0.000000  -0.000032   0.000010  -0.000000   0.000000   0.000002
    14  C    0.000000  -0.000033   0.000048   0.000000  -0.000000  -0.000006
    15  C   -0.000000  -0.006978  -0.003461  -0.000001  -0.000000   0.000108
    16  C   -0.094144   0.000000  -0.000000  -0.000073   0.000015   0.000003
    17  C    0.026710  -0.000000   0.000000  -0.000032   0.000010   0.000002
    18  C    0.422587   0.000000  -0.000000  -0.000033   0.000048  -0.000006
    19  C    5.228112  -0.000001  -0.000000  -0.006979  -0.003461   0.000108
    20  C   -0.000001   5.015221   0.283830  -0.000552  -0.000092   0.000413
    21  C   -0.000000   0.283830   4.978875  -0.000092   0.000077  -0.003595
    22  C   -0.006979  -0.000552  -0.000092   5.015251   0.283822   0.000414
    23  C   -0.003461  -0.000092   0.000077   0.283822   4.978888  -0.003596
    24  H    0.000108   0.000413  -0.003595   0.000414  -0.003596   0.452914
    25  H    0.000000   0.000019  -0.000001  -0.000000  -0.000000  -0.000000
    26  H    0.000000  -0.000001   0.000000   0.000000  -0.000000   0.000000
    27  H    0.000000  -0.000012   0.000003  -0.000000   0.000000  -0.000000
    28  H   -0.000000   0.000951  -0.001303  -0.000000   0.000000  -0.000007
    29  H   -0.005298  -0.000000  -0.000000   0.000019  -0.000001  -0.000000
    30  H    0.011161   0.000000  -0.000000  -0.000001   0.000000   0.000000
    31  H   -0.053890  -0.000000   0.000000  -0.000012   0.000003  -0.000000
    32  H    0.431369  -0.000000   0.000000   0.000952  -0.001303  -0.000007
    33  H   -0.000001   0.400232  -0.035054   0.000245   0.000165   0.001845
    34  H    0.000000   0.399732  -0.031537   0.000007  -0.000001   0.000312
    35  H   -0.000000  -0.038753   0.410766   0.000001  -0.000001   0.000354
    36  H    0.000000  -0.038622   0.413238  -0.000114   0.000008  -0.000703
    37  H    0.000000  -0.041846   0.408257   0.000026   0.000002   0.000028
    38  H    0.001361   0.000245   0.000165   0.400244  -0.035058   0.001842
    39  H    0.005100   0.000007  -0.000001   0.399724  -0.031536   0.000312
    40  H    0.003436   0.000001  -0.000001  -0.038747   0.410761   0.000354
    41  H    0.000336  -0.000114   0.000008  -0.038633   0.413245  -0.000703
    42  H   -0.000027   0.000026   0.000002  -0.041846   0.408255   0.000027
              25         26         27         28         29         30
     1  C    0.000224   0.000016   0.000031  -0.000651   0.000007  -0.000000
     2  C   -0.000037   0.000000  -0.000002   0.000061  -0.000037   0.000000
     3  C    0.000007  -0.000000   0.000000   0.000005   0.000224   0.000016
     4  N    0.000000  -0.000000   0.000000  -0.000000  -0.000015   0.000027
     5  S   -0.003806  -0.000227   0.000016  -0.000206  -0.000037  -0.000000
     6  C   -0.068412   0.012040  -0.002532   0.006965  -0.000000  -0.000000
     7  C    0.018389  -0.003049   0.012186  -0.044640   0.000000   0.000000
     8  N   -0.000015   0.000027  -0.000104  -0.002737   0.000000  -0.000000
     9  S   -0.000037  -0.000000  -0.000000   0.000000  -0.003806  -0.000227
    10  C   -0.000000  -0.000000  -0.000000   0.000000  -0.068413   0.012040
    11  C    0.000000   0.000000   0.000000  -0.000000   0.018389  -0.003049
    12  C    0.449752  -0.057108   0.010108  -0.001443  -0.000000  -0.000000
    13  C   -0.052275   0.441920  -0.048877   0.007010   0.000000   0.000000
    14  C    0.011216  -0.050983   0.437422  -0.034691  -0.000000  -0.000000
    15  C   -0.005297   0.011161  -0.053890   0.431372   0.000000   0.000000
    16  C   -0.000000  -0.000000  -0.000000   0.000000   0.449752  -0.057108
    17  C    0.000000   0.000000  -0.000000  -0.000000  -0.052275   0.441919
    18  C   -0.000000  -0.000000   0.000000   0.000000   0.011216  -0.050983
    19  C    0.000000   0.000000   0.000000  -0.000000  -0.005298   0.011161
    20  C    0.000019  -0.000001  -0.000012   0.000951  -0.000000   0.000000
    21  C   -0.000001   0.000000   0.000003  -0.001303  -0.000000  -0.000000
    22  C   -0.000000   0.000000  -0.000000  -0.000000   0.000019  -0.000001
    23  C   -0.000000  -0.000000   0.000000   0.000000  -0.000001   0.000000
    24  H   -0.000000   0.000000  -0.000000  -0.000007  -0.000000   0.000000
    25  H    0.491362  -0.006177  -0.000125   0.000019  -0.000000  -0.000000
    26  H   -0.006177   0.499998  -0.006008  -0.000107  -0.000000  -0.000000
    27  H   -0.000125  -0.006008   0.497536  -0.005587   0.000000   0.000000
    28  H    0.000019  -0.000107  -0.005587   0.473105   0.000000  -0.000000
    29  H   -0.000000  -0.000000   0.000000   0.000000   0.491363  -0.006177
    30  H   -0.000000  -0.000000   0.000000  -0.000000  -0.006177   0.499999
    31  H    0.000000   0.000000  -0.000000   0.000000  -0.000125  -0.006008
    32  H    0.000000  -0.000000   0.000000   0.000000   0.000019  -0.000107
    33  H   -0.000001  -0.000000  -0.000001   0.000368   0.000000  -0.000000
    34  H    0.000003  -0.000001  -0.000023   0.000161  -0.000000   0.000000
    35  H   -0.000000   0.000000  -0.000003   0.000324   0.000000  -0.000000
    36  H    0.000000  -0.000000  -0.000000   0.000028  -0.000000   0.000000
    37  H    0.000000  -0.000000   0.000000   0.000102   0.000000   0.000000
    38  H    0.000000  -0.000000   0.000000  -0.000000  -0.000001  -0.000000
    39  H   -0.000000   0.000000  -0.000000   0.000000   0.000003  -0.000001
    40  H    0.000000  -0.000000   0.000000  -0.000000  -0.000000   0.000000
    41  H   -0.000000   0.000000  -0.000000  -0.000000   0.000000  -0.000000
    42  H    0.000000   0.000000   0.000000   0.000000   0.000000  -0.000000
              31         32         33         34         35         36
     1  C    0.000000   0.000005  -0.030080   0.008212  -0.000734  -0.000503
     2  C   -0.000002   0.000061   0.016585  -0.000315   0.000332   0.003268
     3  C    0.000031  -0.000651   0.003469  -0.000030  -0.000049   0.000158
     4  N   -0.000104  -0.002737  -0.000101  -0.000002  -0.000001   0.000000
     5  S   -0.000000   0.000000  -0.000015  -0.000477  -0.000026  -0.000241
     6  C   -0.000000   0.000000  -0.000382  -0.000691   0.000110  -0.000142
     7  C    0.000000  -0.000000   0.008070  -0.021130  -0.000283  -0.001376
     8  N    0.000000  -0.000000  -0.022486  -0.019246  -0.000535  -0.000100
     9  S    0.000016  -0.000205  -0.000039   0.000001   0.000000  -0.000010
    10  C   -0.002532   0.006964   0.000012  -0.000000   0.000000  -0.000000
    11  C    0.012186  -0.044637  -0.000018   0.000000  -0.000000   0.000005
    12  C   -0.000000   0.000000  -0.000036   0.000299  -0.000043   0.000024
    13  C   -0.000000  -0.000000   0.000019  -0.000255   0.000031  -0.000007
    14  C    0.000000   0.000000  -0.000082   0.002344   0.000074   0.000033
    15  C    0.000000  -0.000000   0.001361   0.005097   0.003437   0.000336
    16  C    0.010108  -0.001443   0.000000  -0.000000   0.000000  -0.000000
    17  C   -0.048876   0.007009  -0.000000   0.000000  -0.000000   0.000000
    18  C    0.437422  -0.034689   0.000000  -0.000000   0.000000  -0.000000
    19  C   -0.053890   0.431369  -0.000001   0.000000  -0.000000   0.000000
    20  C   -0.000000  -0.000000   0.400232   0.399732  -0.038753  -0.038622
    21  C    0.000000   0.000000  -0.035054  -0.031537   0.410766   0.413238
    22  C   -0.000012   0.000952   0.000245   0.000007   0.000001  -0.000114
    23  C    0.000003  -0.001303   0.000165  -0.000001  -0.000001   0.000008
    24  H   -0.000000  -0.000007   0.001845   0.000312   0.000354  -0.000703
    25  H    0.000000   0.000000  -0.000001   0.000003  -0.000000   0.000000
    26  H    0.000000  -0.000000  -0.000000  -0.000001   0.000000  -0.000000
    27  H   -0.000000   0.000000  -0.000001  -0.000023  -0.000003  -0.000000
    28  H    0.000000   0.000000   0.000368   0.000161   0.000324   0.000028
    29  H   -0.000125   0.000019   0.000000  -0.000000   0.000000  -0.000000
    30  H   -0.006008  -0.000107  -0.000000   0.000000  -0.000000   0.000000
    31  H    0.497535  -0.005586   0.000000  -0.000000   0.000000  -0.000000
    32  H   -0.005586   0.473099  -0.000000   0.000000  -0.000000  -0.000000
    33  H    0.000000  -0.000000   0.521792  -0.022403   0.004784  -0.004498
    34  H   -0.000000   0.000000  -0.022403   0.522620  -0.005150   0.004674
    35  H    0.000000  -0.000000   0.004784  -0.005150   0.531947  -0.025320
    36  H   -0.000000  -0.000000  -0.004498   0.004674  -0.025320   0.530530
    37  H    0.000000   0.000000  -0.001051  -0.001225  -0.022199  -0.022650
    38  H   -0.000001   0.000368  -0.000177  -0.000007   0.000007   0.000588
    39  H   -0.000023   0.000161  -0.000007  -0.000000  -0.000000   0.000001
    40  H   -0.000003   0.000323   0.000007  -0.000000   0.000000  -0.000000
    41  H   -0.000000   0.000028   0.000587   0.000001  -0.000000  -0.000006
    42  H    0.000000   0.000102  -0.000070  -0.000001   0.000000   0.000004
              37         38         39         40         41         42
     1  C    0.000234   0.003463  -0.000030  -0.000050   0.000160   0.000007
     2  C   -0.000261   0.016583  -0.000314   0.000331   0.003267  -0.000261
     3  C    0.000007  -0.030070   0.008210  -0.000733  -0.000503   0.000235
     4  N   -0.000000  -0.022492  -0.019247  -0.000535  -0.000098   0.006302
     5  S    0.000021  -0.000039   0.000001   0.000000  -0.000010   0.000001
     6  C   -0.000021   0.000012  -0.000000   0.000000  -0.000000  -0.000000
     7  C   -0.000014  -0.000018   0.000000  -0.000000   0.000005   0.000000
     8  N    0.006302  -0.000101  -0.000002  -0.000001   0.000000  -0.000000
     9  S    0.000001  -0.000015  -0.000477  -0.000026  -0.000241   0.000021
    10  C   -0.000000  -0.000382  -0.000690   0.000110  -0.000142  -0.000021
    11  C    0.000000   0.008069  -0.021129  -0.000283  -0.001375  -0.000014
    12  C   -0.000003   0.000000  -0.000000   0.000000  -0.000000  -0.000000
    13  C    0.000002  -0.000000   0.000000  -0.000000   0.000000   0.000000
    14  C   -0.000007   0.000000  -0.000000   0.000000  -0.000000  -0.000000
    15  C   -0.000027  -0.000001   0.000000  -0.000000   0.000000   0.000000
    16  C   -0.000000  -0.000036   0.000299  -0.000043   0.000024  -0.000003
    17  C    0.000000   0.000019  -0.000255   0.000031  -0.000007   0.000002
    18  C   -0.000000  -0.000082   0.002342   0.000074   0.000033  -0.000007
    19  C    0.000000   0.001361   0.005100   0.003436   0.000336  -0.000027
    20  C   -0.041846   0.000245   0.000007   0.000001  -0.000114   0.000026
    21  C    0.408257   0.000165  -0.000001  -0.000001   0.000008   0.000002
    22  C    0.000026   0.400244   0.399724  -0.038747  -0.038633  -0.041846
    23  C    0.000002  -0.035058  -0.031536   0.410761   0.413245   0.408255
    24  H    0.000028   0.001842   0.000312   0.000354  -0.000703   0.000027
    25  H    0.000000   0.000000  -0.000000   0.000000  -0.000000   0.000000
    26  H   -0.000000  -0.000000   0.000000  -0.000000   0.000000   0.000000
    27  H    0.000000   0.000000  -0.000000   0.000000  -0.000000   0.000000
    28  H    0.000102  -0.000000   0.000000  -0.000000  -0.000000   0.000000
    29  H    0.000000  -0.000001   0.000003  -0.000000   0.000000   0.000000
    30  H    0.000000  -0.000000  -0.000001   0.000000  -0.000000  -0.000000
    31  H    0.000000  -0.000001  -0.000023  -0.000003  -0.000000   0.000000
    32  H    0.000000   0.000368   0.000161   0.000323   0.000028   0.000102
    33  H   -0.001051  -0.000177  -0.000007   0.000007   0.000587  -0.000070
    34  H   -0.001225  -0.000007  -0.000000  -0.000000   0.000001  -0.000001
    35  H   -0.022199   0.000007  -0.000000   0.000000  -0.000000   0.000000
    36  H   -0.022650   0.000588   0.000001  -0.000000  -0.000006   0.000004
    37  H    0.534213  -0.000070  -0.000001   0.000000   0.000004  -0.000003
    38  H   -0.000070   0.521783  -0.022398   0.004784  -0.004496  -0.001051
    39  H   -0.000001  -0.022398   0.522615  -0.005150   0.004674  -0.001224
    40  H    0.000000   0.004784  -0.005150   0.531948  -0.025320  -0.022198
    41  H    0.000004  -0.004496   0.004674  -0.025320   0.530529  -0.022649
    42  H   -0.000003  -0.001051  -0.001224  -0.022198  -0.022649   0.534215
 Mulliken charges:
               1
     1  C    0.146370
     2  C   -0.313328
     3  C    0.146349
     4  N    0.023182
     5  S    0.037825
     6  C    0.038309
     7  C    0.169575
     8  N    0.023174
     9  S    0.037826
    10  C    0.038309
    11  C    0.169572
    12  C   -0.194434
    13  C   -0.150909
    14  C   -0.126231
    15  C   -0.264765
    16  C   -0.194429
    17  C   -0.150908
    18  C   -0.126235
    19  C   -0.264765
    20  C   -0.135139
    21  C   -0.382080
    22  C   -0.135146
    23  C   -0.382084
    24  H    0.204058
    25  H    0.165195
    26  H    0.158498
    27  H    0.159860
    28  H    0.170900
    29  H    0.165196
    30  H    0.158498
    31  H    0.159860
    32  H    0.170905
    33  H    0.156957
    34  H    0.159033
    35  H    0.140928
    36  H    0.141397
    37  H    0.140179
    38  H    0.156959
    39  H    0.159034
    40  H    0.140928
    41  H    0.141398
    42  H    0.140178
 Sum of Mulliken charges =   1.00000
 Mulliken charges with hydrogens summed into heavy atoms:
               1
     1  C    0.146370
     2  C   -0.109270
     3  C    0.146349
     4  N    0.023182
     5  S    0.037825
     6  C    0.038309
     7  C    0.169575
     8  N    0.023174
     9  S    0.037826
    10  C    0.038309
    11  C    0.169572
    12  C   -0.029239
    13  C    0.007588
    14  C    0.033629
    15  C   -0.093864
    16  C   -0.029234
    17  C    0.007589
    18  C    0.033626
    19  C   -0.093859
    20  C    0.180852
    21  C    0.040425
    22  C    0.180847
    23  C    0.040419
 Electronic spatial extent (au):  <R**2>=          10370.0452
 Charge=              1.0000 electrons
 Dipole moment (field-independent basis, Debye):
    X=              0.0001    Y=              5.2740    Z=              0.0001  Tot=              5.2740
 Quadrupole moment (field-independent basis, Debye-Ang):
   XX=            -71.2255   YY=           -110.4100   ZZ=           -154.1219
   XY=             -0.0003   XZ=              2.1740   YZ=             -0.0005
 Traceless Quadrupole moment (field-independent basis, Debye-Ang):
   XX=             40.6936   YY=              1.5091   ZZ=            -42.2028
   XY=             -0.0003   XZ=              2.1740   YZ=             -0.0005
 Octapole moment (field-independent basis, Debye-Ang**2):
  XXX=              0.0020  YYY=             22.0234  ZZZ=              0.0003  XYY=             -0.0004
  XXY=              2.6238  XXZ=              0.0023  XZZ=             -0.0001  YZZ=             13.7399
  YYZ=              0.0017  XYZ=              6.9168
 Hexadecapole moment (field-independent basis, Debye-Ang**3):
 XXXX=          -8737.4229 YYYY=          -2349.6716 ZZZZ=           -341.1893 XXXY=             -0.0065
 XXXZ=             76.0411 YYYX=             -0.0083 YYYZ=             -0.0033 ZZZX=             -9.0089
 ZZZY=              0.0013 XXYY=          -1859.0978 XXZZ=          -2130.7149 YYZZ=           -521.8917
 XXYZ=             -0.0134 YYXZ=              2.9777 ZZXY=              0.0002
 N-N= 2.127852619795D+03 E-N=-8.086130432958D+03  KE= 1.635312760287D+03
 Unable to Open any file for archive entry.
 1\1\GINC-CN06\SP\RB3LYP TD-FC\def2TZVP\C19H19N2S2(1+)\2100011873\03-No
 v-2023\0\\# td=(nstates=150) b3lyp/def2TZVP scrf(smd, solvent=ethanol)
 \\A-1\\1,1\C,0,-1.259214,0.216698,-0.039367\C,0,0.000003,0.828935,-0.0
 00122\C,0,1.259209,0.216684,0.039249\N,0,2.433464,0.904848,0.145998\S,
 0,-1.557561,-1.512152,0.053882\C,0,-3.297665,-1.258824,-0.027283\C,0,-
 3.589904,0.108866,-0.118299\N,0,-2.433474,0.904863,-0.146106\S,0,1.557
 549,-1.512171,-0.053923\C,0,3.297657,-1.25885,0.027304\C,0,3.5899,0.10
 8842,0.118251\C,0,-4.301571,-2.224422,-0.003624\C,0,-5.624645,-1.79212
 5,-0.066975\C,0,-5.925643,-0.425687,-0.149009\C,0,-4.920394,0.538274,-
 0.174272\C,0,4.301563,-2.22445,0.003718\C,0,5.624635,-1.792149,0.06706
 6\C,0,5.925635,-0.425707,0.149021\C,0,4.920384,0.538258,0.174213\C,0,-
 2.510348,2.373529,-0.257226\C,0,-2.566433,3.073786,1.101522\C,0,2.5103
 39,2.373497,0.257299\C,0,2.566508,3.073929,-1.101357\H,0,0.000014,1.90
 904,-0.000214\H,0,-4.060576,-3.280313,0.063971\H,0,-6.427238,-2.522132
 ,-0.049094\H,0,-6.962056,-0.106514,-0.191342\H,0,-5.176748,1.590213,-0
 .22813\H,0,4.060566,-3.280345,-0.063815\H,0,6.42723,-2.522156,0.049231
 \H,0,6.962048,-0.106532,0.191339\H,0,5.176733,1.590201,0.228019\H,0,-1
 .657488,2.708489,-0.852128\H,0,-3.398115,2.597174,-0.852215\H,0,-3.441
 185,2.752064,1.674572\H,0,-1.673838,2.863356,1.699082\H,0,-2.63423,4.1
 56364,0.954302\H,0,1.657436,2.708379,0.852183\H,0,3.398074,2.597059,0.
 85237\H,0,3.441334,2.752344,-1.674368\H,0,1.673988,2.86351,-1.699033\H
 ,0,2.634214,4.156493,-0.95399\\Version=ES64L-G16RevC.02\State=1-A\HF=-
 1641.6114522\RMSD=9.574e-09\PG=C01 [X(C19H19N2S2)]\\@
 The archive entry for this job was punched.


 TRUST EVERYONE, BUT CUT THE CARDS.
 Job cpu time:       2 days 14 hours 40 minutes 59.4 seconds.
 Elapsed time:       0 days  2 hours  3 minutes 38.6 seconds.
 File lengths (MBytes):  RWF=  28896 Int=      0 D2E=      0 Chk=   2880 Scr=     32
 Normal termination of Gaussian 16 at Fri Nov  3 16:37:22 2023.
