 Entering Gaussian System, Link 0=g16
 Initial command:
 /nfs-share/home/2100011873/Gaussian16_AVX2/g16/l1.exe "/nfs-share/home/2100011873/GaussTmp/Gau-141974.inp" -scrdir="/nfs-share/home/2100011873/GaussTmp/"
 Entering Link 1 = /nfs-share/home/2100011873/Gaussian16_AVX2/g16/l1.exe PID=    141975.
  
 Copyright (c) 1988-2021, Gaussian, Inc.  All Rights Reserved.
  
 This is part of the Gaussian(R) 16 program.  It is based on
 the Gaussian(R) 09 system (copyright 2009, Gaussian, Inc.),
 the Gaussian(R) 03 system (copyright 2003, Gaussian, Inc.),
 the Gaussian(R) 98 system (copyright 1998, Gaussian, Inc.),
 the Gaussian(R) 94 system (copyright 1995, Gaussian, Inc.),
 the Gaussian 92(TM) system (copyright 1992, Gaussian, Inc.),
 the Gaussian 90(TM) system (copyright 1990, Gaussian, Inc.),
 the Gaussian 88(TM) system (copyright 1988, Gaussian, Inc.),
 the Gaussian 86(TM) system (copyright 1986, Carnegie Mellon
 University), and the Gaussian 82(TM) system (copyright 1983,
 Carnegie Mellon University). Gaussian is a federally registered
 trademark of Gaussian, Inc.
  
 This software contains proprietary and confidential information,
 including trade secrets, belonging to Gaussian, Inc.
  
 This software is provided under written license and may be
 used, copied, transmitted, or stored only in accord with that
 written license.
  
 The following legend is applicable only to US Government
 contracts under FAR:
  
                    RESTRICTED RIGHTS LEGEND
  
 Use, reproduction and disclosure by the US Government is
 subject to restrictions as set forth in subparagraphs (a)
 and (c) of the Commercial Computer Software - Restricted
 Rights clause in FAR 52.227-19.
  
 Gaussian, Inc.
 340 Quinnipiac St., Bldg. 40, Wallingford CT 06492
  
  
 ---------------------------------------------------------------
 Warning -- This program may not be used in any manner that
 competes with the business of Gaussian, Inc. or will provide
 assistance to any competitor of Gaussian, Inc.  The licensee
 of this program is prohibited from giving any competitor of
 Gaussian, Inc. access to this program.  By using this program,
 the user acknowledges that Gaussian, Inc. is engaged in the
 business of creating and licensing software in the field of
 computational chemistry and represents and warrants to the
 licensee that it is not a competitor of Gaussian, Inc. and that
 it will not use this program in any manner prohibited above.
 ---------------------------------------------------------------
  

 Cite this work as:
 Gaussian 16, Revision C.02,
 M. J. Frisch, G. W. Trucks, H. B. Schlegel, G. E. Scuseria, 
 M. A. Robb, J. R. Cheeseman, G. Scalmani, V. Barone, 
 G. A. Petersson, H. Nakatsuji, X. Li, M. Caricato, A. V. Marenich, 
 J. Bloino, B. G. Janesko, R. Gomperts, B. Mennucci, H. P. Hratchian, 
 J. V. Ortiz, A. F. Izmaylov, J. L. Sonnenberg, D. Williams-Young, 
 F. Ding, F. Lipparini, F. Egidi, J. Goings, B. Peng, A. Petrone, 
 T. Henderson, D. Ranasinghe, V. G. Zakrzewski, J. Gao, N. Rega, 
 G. Zheng, W. Liang, M. Hada, M. Ehara, K. Toyota, R. Fukuda, 
 J. Hasegawa, M. Ishida, T. Nakajima, Y. Honda, O. Kitao, H. Nakai, 
 T. Vreven, K. Throssell, J. A. Montgomery, Jr., J. E. Peralta, 
 F. Ogliaro, M. J. Bearpark, J. J. Heyd, E. N. Brothers, K. N. Kudin, 
 V. N. Staroverov, T. A. Keith, R. Kobayashi, J. Normand, 
 K. Raghavachari, A. P. Rendell, J. C. Burant, S. S. Iyengar, 
 J. Tomasi, M. Cossi, J. M. Millam, M. Klene, C. Adamo, R. Cammi, 
 J. W. Ochterski, R. L. Martin, K. Morokuma, O. Farkas, 
 J. B. Foresman, and D. J. Fox, Gaussian, Inc., Wallingford CT, 2019.
 
 ******************************************
 Gaussian 16:  ES64L-G16RevC.02  7-Dec-2021
                 6-Nov-2023 
 ******************************************
 %nprocshared=36
 Will use up to   36 processors via shared memory.
 %mem=128GB
 ------------------------------------------------------------
 # td=(nstates=150) b3lyp/def2TZVP scrf(smd, solvent=ethanol)
 ------------------------------------------------------------
 1/38=1,172=1/1;
 2/12=2,17=6,18=5,40=1/2;
 3/5=44,7=101,11=9,25=1,30=1,70=32201,72=4,74=-5/1,2,3,8;
 4//1;
 5/5=2,38=5,53=4/2;
 8/6=1,10=1,108=150/1;
 9/41=150,42=1,70=2/14;
 6/7=2,8=2,9=2,10=2/1;
 99/5=1,9=1/99;
 ---
 B-1
 ---
 Symbolic Z-matrix:
 Charge =  0 Multiplicity = 1
 C                    -13.19325  -1.96518   0.35751 
 C                    -14.15023  -1.3663   -0.66684 
 C                    -14.19793   0.14589  -0.46999 
 C                    -12.83989   0.78112  -0.26594 
 C                    -11.69919   0.06912  -0.02054 
 C                    -11.73425  -1.46329   0.19794 
 C                    -10.43464   0.80864   0.02792 
 C                    -9.1477    0.36849   0.05193 
 C                    -7.97098   1.21881   0.06402 
 C                    -6.73848   0.61877   0.06999 
 C                    -5.44585   1.23802   0.07821 
 C                    -4.28033   0.52598   0.08121 
 C                    -2.9426    1.06363   0.08601 
 C                    -1.88552   0.18504   0.0869 
 C                    -0.48836   0.47987   0.08838 
 C                     0.48836  -0.47988   0.08838 
 C                     1.88552  -0.18505   0.0869 
 C                     2.9426   -1.06364   0.08601 
 C                     4.28033  -0.52598   0.08121 
 C                     5.44585  -1.23802   0.07821 
 C                     6.73848  -0.61878   0.06999 
 C                     7.97098  -1.21882   0.06402 
 C                     9.1477   -0.36849   0.05193 
 C                     10.43464  -0.80864   0.02791 
 C                     11.69919  -0.06911  -0.02054 
 C                     11.73425   1.4633    0.19794 
 C                    -11.0146  -1.85387   1.51323 
 C                    -11.08758  -2.20926  -0.99638 
 C                    -12.87893   2.29364  -0.39889 
 C                     13.19324   1.96519   0.35753 
 C                     14.15024   1.36631  -0.66682 
 C                     14.19793  -0.14588  -0.46997 
 C                     12.83989  -0.78111  -0.26594 
 C                     11.01458   1.85387   1.51322 
 C                     11.08758   2.20926  -0.99639 
 C                     12.87893  -2.29364  -0.39888 
 C                     8.15656  -2.71718   0.0685 
 C                     2.76951  -2.56424   0.08879 
 C                    -2.7695    2.56423   0.08879 
 C                    -8.15656   2.71718   0.0685 
 H                    -13.55224  -1.70444   1.36372 
 H                    -13.19179  -3.06159   0.30296 
 H                    -15.15315  -1.79827  -0.56305 
 H                    -13.81309  -1.59776  -1.68519 
 H                    -14.83673   0.39264   0.39555 
 H                    -14.68517   0.6313   -1.32865 
 H                    -10.55321   1.88625  -0.00013 
 H                    -8.93157  -0.69442   0.04825 
 H                    -6.72719  -0.47229   0.0666 
 H                    -5.39419   2.32333   0.08055 
 H                    -4.35407  -0.56241   0.07851 
 H                    -2.13643  -0.87673   0.08526 
 H                    -0.17247   1.5217    0.08852 
 H                     0.17247  -1.52171   0.08852 
 H                     2.13644   0.87672   0.08527 
 H                     4.35407   0.5624    0.07851 
 H                     5.39419  -2.32334   0.08054 
 H                     6.72719   0.47229   0.06659 
 H                     8.93157   0.69442   0.04824 
 H                     10.55321  -1.88625  -0.00012 
 H                    -11.41656  -1.28058   2.35641 
 H                    -11.18397  -2.91813   1.72001 
 H                    -9.93616  -1.69087   1.48859 
 H                    -10.06227  -1.88498  -1.18781 
 H                    -11.06723  -3.28878  -0.80027 
 H                    -11.65314  -2.04558  -1.91992 
 H                    -13.91376   2.64896  -0.35064 
 H                    -12.32451   2.80958   0.39214 
 H                    -12.46878   2.63324  -1.36008 
 H                     13.19178   3.06159   0.30298 
 H                     13.55222   1.70445   1.36374 
 H                     15.15315   1.79828  -0.56302 
 H                     13.8131   1.59777  -1.68517 
 H                     14.83673  -0.39263   0.39557 
 H                     14.68518  -0.63129  -1.32863 
 H                     11.18393   2.91814   1.72 
 H                     9.93614   1.69087   1.48856 
 H                     11.41653   1.28059   2.3564 
 H                     10.06228   1.88498  -1.18783 
 H                     11.06723   3.28878  -0.80029 
 H                     11.65315   2.04558  -1.91993 
 H                     13.91377  -2.64895  -0.35064 
 H                     12.32452  -2.80958   0.39214 
 H                     12.46878  -2.63323  -1.36007 
 H                     8.74409  -3.03646   0.93873 
 H                     7.20915  -3.25795   0.09305 
 H                     8.70422  -3.04723  -0.82368 
 H                     3.24804  -3.01107   0.96953 
 H                     1.72147  -2.86803   0.09271 
 H                     3.24239  -3.01383  -0.79361 
 H                    -3.2424    3.01383  -0.7936 
 H                    -3.24802   3.01106   0.96955 
 H                    -1.72147   2.86802   0.09269 
 H                    -7.20914   3.25794   0.09306 
 H                    -8.70421   3.04723  -0.82368 
 H                    -8.74409   3.03646   0.93873 
 
 Stoichiometry    C40H56
 Framework group  C1[X(C40H56)]
 Deg. of freedom   282
 Full point group                 C1      NOp   1
 Largest Abelian subgroup         C1      NOp   1
 Largest concise Abelian subgroup C1      NOp   1
                         Standard orientation:                         
 ---------------------------------------------------------------------
 Center     Atomic      Atomic             Coordinates (Angstroms)
 Number     Number       Type             X           Y           Z
 ---------------------------------------------------------------------
      1          6           0       13.193247    1.965180    0.357514
      2          6           0       14.150234    1.366297   -0.666837
      3          6           0       14.197930   -0.145886   -0.469985
      4          6           0       12.839886   -0.781119   -0.265942
      5          6           0       11.699193   -0.069117   -0.020535
      6          6           0       11.734254    1.463294    0.197940
      7          6           0       10.434640   -0.808638    0.027915
      8          6           0        9.147698   -0.368486    0.051934
      9          6           0        7.970978   -1.218813    0.064023
     10          6           0        6.738479   -0.618773    0.069992
     11          6           0        5.445845   -1.238015    0.078209
     12          6           0        4.280328   -0.525977    0.081210
     13          6           0        2.942601   -1.063627    0.086009
     14          6           0        1.885522   -0.185039    0.086900
     15          6           0        0.488362   -0.479870    0.088382
     16          6           0       -0.488364    0.479879    0.088381
     17          6           0       -1.885523    0.185049    0.086901
     18          6           0       -2.942603    1.063636    0.086010
     19          6           0       -4.280330    0.525984    0.081210
     20          6           0       -5.445847    1.238022    0.078205
     21          6           0       -6.738480    0.618778    0.069986
     22          6           0       -7.970980    1.218816    0.064016
     23          6           0       -9.147699    0.368486    0.051926
     24          6           0      -10.434641    0.808636    0.027911
     25          6           0      -11.699193    0.069112   -0.020539
     26          6           0      -11.734248   -1.463299    0.197935
     27          6           0       11.014600    1.853868    1.513234
     28          6           0       11.087577    2.209256   -0.996377
     29          6           0       12.878927   -2.293643   -0.398885
     30          6           0      -13.193238   -1.965187    0.357525
     31          6           0      -14.150237   -1.366308   -0.666817
     32          6           0      -14.197934    0.145875   -0.469969
     33          6           0      -12.839889    0.781111   -0.265939
     34          6           0      -11.014576   -1.853870    1.513220
     35          6           0      -11.087582   -2.209257   -0.996389
     36          6           0      -12.878932    2.293635   -0.398883
     37          6           0       -8.156563    2.717180    0.068498
     38          6           0       -2.769507    2.564242    0.088788
     39          6           0        2.769504   -2.564233    0.088790
     40          6           0        8.156557   -2.717177    0.068503
     41          1           0       13.552240    1.704444    1.363722
     42          1           0       13.191791    3.061587    0.302962
     43          1           0       15.153148    1.798268   -0.563053
     44          1           0       13.813091    1.597755   -1.685187
     45          1           0       14.836732   -0.392637    0.395545
     46          1           0       14.685170   -0.631298   -1.328645
     47          1           0       10.553209   -1.886254   -0.000126
     48          1           0        8.931571    0.694424    0.048253
     49          1           0        6.727188    0.472294    0.066595
     50          1           0        5.394190   -2.323329    0.080545
     51          1           0        4.354073    0.562407    0.078511
     52          1           0        2.136434    0.876729    0.085263
     53          1           0        0.172471   -1.521700    0.088524
     54          1           0       -0.172472    1.521709    0.088521
     55          1           0       -2.136435   -0.876720    0.085267
     56          1           0       -4.354074   -0.562400    0.078514
     57          1           0       -5.394193    2.323335    0.080538
     58          1           0       -6.727188   -0.472289    0.066588
     59          1           0       -8.931568   -0.694423    0.048240
     60          1           0      -10.553213    1.886252   -0.000123
     61          1           0       11.416560    1.280584    2.356412
     62          1           0       11.183965    2.918133    1.720013
     63          1           0        9.936160    1.690871    1.488587
     64          1           0       10.062275    1.884980   -1.187807
     65          1           0       11.067226    3.288779   -0.800274
     66          1           0       11.653135    2.045583   -1.919919
     67          1           0       13.913764   -2.648960   -0.350635
     68          1           0       12.324510   -2.809583    0.392139
     69          1           0       12.468777   -2.633235   -1.360075
     70          1           0      -13.191780   -3.061594    0.302976
     71          1           0      -13.552222   -1.704450    1.363737
     72          1           0      -15.153149   -1.798281   -0.563022
     73          1           0      -13.813104   -1.597768   -1.685170
     74          1           0      -14.836727    0.392627    0.395567
     75          1           0      -14.685183    0.631285   -1.328625
     76          1           0      -11.183932   -2.918136    1.719999
     77          1           0       -9.936137   -1.690867    1.488558
     78          1           0      -11.416527   -1.280589    2.356403
     79          1           0      -10.062283   -1.884978   -1.187830
     80          1           0      -11.067226   -3.288781   -0.800288
     81          1           0      -11.653150   -2.045585   -1.919926
     82          1           0      -13.913771    2.648951   -0.350639
     83          1           0      -12.324521    2.809577    0.392144
     84          1           0      -12.468777    2.633229   -1.360071
     85          1           0       -8.744087    3.036457    0.938730
     86          1           0       -7.209146    3.257946    0.093047
     87          1           0       -8.704221    3.047232   -0.823677
     88          1           0       -3.248036    3.011075    0.969534
     89          1           0       -1.721470    2.868026    0.092705
     90          1           0       -3.242385    3.013831   -0.793611
     91          1           0        3.242396   -3.013825   -0.793600
     92          1           0        3.248019   -3.011063    0.969546
     93          1           0        1.721466   -2.868016    0.092692
     94          1           0        7.209140   -3.257941    0.093061
     95          1           0        8.704208   -3.047230   -0.823677
     96          1           0        8.744089   -3.036455    0.938730
 ---------------------------------------------------------------------
 Rotational constants (GHZ):           0.3478418           0.0099525           0.0097368
 Standard basis: def2TZVP (5D, 7F)
 There are  1776 symmetry adapted cartesian basis functions of A   symmetry.
 There are  1576 symmetry adapted basis functions of A   symmetry.
  1576 basis functions,  2488 primitive gaussians,  1776 cartesian basis functions
   148 alpha electrons      148 beta electrons
       nuclear repulsion energy      3637.1617565307 Hartrees.
 NAtoms=   96 NActive=   96 NUniq=   96 SFac= 1.00D+00 NAtFMM=   60 NAOKFM=T Big=T
 Integral buffers will be    131072 words long.
 Regular integral format.
 Two-electron integral symmetry is turned on.
 ------------------------------------------------------------------------------
 Polarizable Continuum Model (PCM)
 =================================
 Model                : PCM.
 Atomic radii         : SMD-Coulomb.
 Polarization charges : Total charges.
 Charge compensation  : None.
 Solution method      : On-the-fly selection.
 Cavity type          : VdW (van der Waals Surface) (Alpha=1.000).
 Cavity algorithm     : GePol (No added spheres)
                        Default sphere list used, NSphG=   96.
                        Lebedev-Laikov grids with approx.  5.0 points / Ang**2.
                        Smoothing algorithm: York/Karplus (Gamma=1.0000).
                        Polarization charges: spherical gaussians, with
                                              point-specific exponents (IZeta= 3).
                        Self-potential: point-specific (ISelfS= 7).
                        Self-field    : sphere-specific E.n sum rule (ISelfD= 2).
 Solvent              : Ethanol, Eps=  24.852000 Eps(inf)=   1.852593
 ------------------------------------------------------------------------------
 ------------------------------------------------------------------------------
 Atomic radii for non-electrostatic terms: SMD-CDS.
 ------------------------------------------------------------------------------
 Nuclear repulsion after PCM non-electrostatic terms =     3637.1521877144 Hartrees.
 One-electron integrals computed using PRISM.
   1 Symmetry operations used in ECPInt.
 ECPInt:  NShTT=  220780 NPrTT=  646864 LenC2=  101855 LenP2D=  205935.
 LDataN:  DoStor=T MaxTD1= 6 Len=  172
 NBasis=  1576 RedAO= T EigKep=  1.02D-05  NBF=  1576
 NBsUse=  1576 1.00D-06 EigRej= -1.00D+00 NBFU=  1576
 ExpMin= 9.52D-02 ExpMax= 1.36D+04 ExpMxC= 4.63D+02 IAcc=3 IRadAn=         5 AccDes= 0.00D+00
 Harris functional with IExCor=  402 and IRadAn=       5 diagonalized for initial guess.
 HarFok:  IExCor=  402 AccDes= 0.00D+00 IRadAn=         5 IDoV= 1 UseB2=F ITyADJ=14
 ICtDFT=  3500011 ScaDFX=  1.000000  1.000000  1.000000  1.000000
 FoFCou: FMM=F IPFlag=           0 FMFlag=      100000 FMFlg1=        2001
         NFxFlg=           0 DoJE=T BraDBF=F KetDBF=T FulRan=T
         wScrn=  0.000000 ICntrl=       500 IOpCl=  0 I1Cent=   200000004 NGrid=           0
         NMat0=    1 NMatS0=      1 NMatT0=    0 NMatD0=    1 NMtDS0=    0 NMtDT0=    0
 Petite list used in FoFCou.
 Requested convergence on RMS density matrix=1.00D-08 within 128 cycles.
 Requested convergence on MAX density matrix=1.00D-06.
 Requested convergence on             energy=1.00D-06.
 No special actions if energy rises.
 Inv3:  Mode=1 IEnd=   125194800.
 Iteration    1 A*A^-1 deviation from unit magnitude is 3.22D-15 for   2913.
 Iteration    1 A*A^-1 deviation from orthogonality  is 3.08D-15 for   4669    717.
 Iteration    1 A^-1*A deviation from unit magnitude is 3.00D-15 for   4730.
 Iteration    1 A^-1*A deviation from orthogonality  is 4.23D-15 for   4759   1478.
 Error on total polarization charges =  0.12554
 SCF Done:  E(RB3LYP) =  -1558.49738129     A.U. after   12 cycles
            NFock= 12  Conv=0.55D-08     -V/T= 2.0060
 SMD-CDS (non-electrostatic) energy       (kcal/mol) =      -6.00
 (included in total energy above)
 DoSCS=F DFT=T ScalE2(SS,OS)=  1.000000  1.000000
 ExpMin= 9.52D-02 ExpMax= 1.36D+04 ExpMxC= 4.63D+02 IAcc=3 IRadAn=         5 AccDes= 0.00D+00
 HarFok:  IExCor=  205 AccDes= 0.00D+00 IRadAn=         5 IDoV=-2 UseB2=F ITyADJ=14
 ICtDFT= 12500011 ScaDFX=  1.000000  1.000000  1.000000  1.000000
 GSVD:  LWork=       -1920 too small for GESVD, short by        8600 words or        8600 for optimal perf.
 Range of M.O.s used for correlation:    41  1576
 NBasis=  1576 NAE=   148 NBE=   148 NFC=    40 NFV=     0
 NROrb=   1536 NOA=   108 NOB=   108 NVA=  1428 NVB=  1428

 **** Warning!!: The largest alpha MO coefficient is  0.29584498D+02


 **** Warning!!: The smallest alpha delta epsilon is  0.76835964D-01

 NEqPCM:  Using non-equilibrium solvation (IEInf=1, Eps=  24.8520, EpsInf=   1.8526)
 Inv3:  Mode=1 IEnd=   125194800.
 Iteration    1 A*A^-1 deviation from unit magnitude is 3.89D-15 for    356.
 Iteration    1 A*A^-1 deviation from orthogonality  is 2.11D-15 for   4777   1517.
 Iteration    1 A^-1*A deviation from unit magnitude is 3.66D-15 for    356.
 Iteration    1 A^-1*A deviation from orthogonality  is 2.00D-15 for   6401   1874.
 Orbital symmetries:
       Occupied  (A) (A) (A) (A) (A) (A) (A) (A) (A) (A) (A) (A)
                 (A) (A) (A) (A) (A) (A) (A) (A) (A) (A) (A) (A)
                 (A) (A) (A) (A) (A) (A) (A) (A) (A) (A) (A) (A)
                 (A) (A) (A) (A) (A) (A) (A) (A) (A) (A) (A) (A)
                 (A) (A) (A) (A) (A) (A) (A) (A) (A) (A) (A) (A)
                 (A) (A) (A) (A) (A) (A) (A) (A) (A) (A) (A) (A)
                 (A) (A) (A) (A) (A) (A) (A) (A) (A) (A) (A) (A)
                 (A) (A) (A) (A) (A) (A) (A) (A) (A) (A) (A) (A)
                 (A) (A) (A) (A) (A) (A) (A) (A) (A) (A) (A) (A)
                 (A) (A) (A) (A) (A) (A) (A) (A) (A) (A) (A) (A)
                 (A) (A) (A) (A) (A) (A) (A) (A) (A) (A) (A) (A)
                 (A) (A) (A) (A) (A) (A) (A) (A) (A) (A) (A) (A)
                 (A) (A) (A) (A)
       Virtual   (A) (A) (A) (A) (A) (A) (A) (A) (A) (A) (A) (A)
                 (A) (A) (A) (A) (A) (A) (A) (A) (A) (A) (A) (A)
                 (A) (A) (A) (A) (A) (A) (A) (A) (A) (A) (A) (A)
                 (A) (A) (A) (A) (A) (A) (A) (A) (A) (A) (A) (A)
                 (A) (A) (A) (A) (A) (A) (A) (A) (A) (A) (A) (A)
                 (A) (A) (A) (A) (A) (A) (A) (A) (A) (A) (A) (A)
                 (A) (A) (A) (A) (A) (A) (A) (A) (A) (A) (A) (A)
                 (A) (A) (A) (A) (A) (A) (A) (A) (A) (A) (A) (A)
                 (A) (A) (A) (A) (A) (A) (A) (A) (A) (A) (A) (A)
                 (A) (A) (A) (A) (A) (A) (A) (A) (A) (A) (A) (A)
                 (A) (A) (A) (A) (A) (A) (A) (A) (A) (A) (A) (A)
                 (A) (A) (A) (A) (A) (A) (A) (A) (A) (A) (A) (A)
                 (A) (A) (A) (A) (A) (A) (A) (A) (A) (A) (A) (A)
                 (A) (A) (A) (A) (A) (A) (A) (A) (A) (A) (A) (A)
                 (A) (A) (A) (A) (A) (A) (A) (A) (A) (A) (A) (A)
                 (A) (A) (A) (A) (A) (A) (A) (A) (A) (A) (A) (A)
                 (A) (A) (A) (A) (A) (A) (A) (A) (A) (A) (A) (A)
                 (A) (A) (A) (A) (A) (A) (A) (A) (A) (A) (A) (A)
                 (A) (A) (A) (A) (A) (A) (A) (A) (A) (A) (A) (A)
                 (A) (A) (A) (A) (A) (A) (A) (A) (A) (A) (A) (A)
                 (A) (A) (A) (A) (A) (A) (A) (A) (A) (A) (A) (A)
                 (A) (A) (A) (A) (A) (A) (A) (A) (A) (A) (A) (A)
                 (A) (A) (A) (A) (A) (A) (A) (A) (A) (A) (A) (A)
                 (A) (A) (A) (A) (A) (A) (A) (A) (A) (A) (A) (A)
                 (A) (A) (A) (A) (A) (A) (A) (A) (A) (A) (A) (A)
                 (A) (A) (A) (A) (A) (A) (A) (A) (A) (A) (A) (A)
                 (A) (A) (A) (A) (A) (A) (A) (A) (A) (A) (A) (A)
                 (A) (A) (A) (A) (A) (A) (A) (A) (A) (A) (A) (A)
                 (A) (A) (A) (A) (A) (A) (A) (A) (A) (A) (A) (A)
                 (A) (A) (A) (A) (A) (A) (A) (A) (A) (A) (A) (A)
                 (A) (A) (A) (A) (A) (A) (A) (A) (A) (A) (A) (A)
                 (A) (A) (A) (A) (A) (A) (A) (A) (A) (A) (A) (A)
                 (A) (A) (A) (A) (A) (A) (A) (A) (A) (A) (A) (A)
                 (A) (A) (A) (A) (A) (A) (A) (A) (A) (A) (A) (A)
                 (A) (A) (A) (A) (A) (A) (A) (A) (A) (A) (A) (A)
                 (A) (A) (A) (A) (A) (A) (A) (A) (A) (A) (A) (A)
                 (A) (A) (A) (A) (A) (A) (A) (A) (A) (A) (A) (A)
                 (A) (A) (A) (A) (A) (A) (A) (A) (A) (A) (A) (A)
                 (A) (A) (A) (A) (A) (A) (A) (A) (A) (A) (A) (A)
                 (A) (A) (A) (A) (A) (A) (A) (A) (A) (A) (A) (A)
                 (A) (A) (A) (A) (A) (A) (A) (A) (A) (A) (A) (A)
                 (A) (A) (A) (A) (A) (A) (A) (A) (A) (A) (A) (A)
                 (A) (A) (A) (A) (A) (A) (A) (A) (A) (A) (A) (A)
                 (A) (A) (A) (A) (A) (A) (A) (A) (A) (A) (A) (A)
                 (A) (A) (A) (A) (A) (A) (A) (A) (A) (A) (A) (A)
                 (A) (A) (A) (A) (A) (A) (A) (A) (A) (A) (A) (A)
                 (A) (A) (A) (A) (A) (A) (A) (A) (A) (A) (A) (A)
                 (A) (A) (A) (A) (A) (A) (A) (A) (A) (A) (A) (A)
                 (A) (A) (A) (A) (A) (A) (A) (A) (A) (A) (A) (A)
                 (A) (A) (A) (A) (A) (A) (A) (A) (A) (A) (A) (A)
                 (A) (A) (A) (A) (A) (A) (A) (A) (A) (A) (A) (A)
                 (A) (A) (A) (A) (A) (A) (A) (A) (A) (A) (A) (A)
                 (A) (A) (A) (A) (A) (A) (A) (A) (A) (A) (A) (A)
                 (A) (A) (A) (A) (A) (A) (A) (A) (A) (A) (A) (A)
                 (A) (A) (A) (A) (A) (A) (A) (A) (A) (A) (A) (A)
                 (A) (A) (A) (A) (A) (A) (A) (A) (A) (A) (A) (A)
                 (A) (A) (A) (A) (A) (A) (A) (A) (A) (A) (A) (A)
                 (A) (A) (A) (A) (A) (A) (A) (A) (A) (A) (A) (A)
                 (A) (A) (A) (A) (A) (A) (A) (A) (A) (A) (A) (A)
                 (A) (A) (A) (A) (A) (A) (A) (A) (A) (A) (A) (A)
                 (A) (A) (A) (A) (A) (A) (A) (A) (A) (A) (A) (A)
                 (A) (A) (A) (A) (A) (A) (A) (A) (A) (A) (A) (A)
                 (A) (A) (A) (A) (A) (A) (A) (A) (A) (A) (A) (A)
                 (A) (A) (A) (A) (A) (A) (A) (A) (A) (A) (A) (A)
                 (A) (A) (A) (A) (A) (A) (A) (A) (A) (A) (A) (A)
                 (A) (A) (A) (A) (A) (A) (A) (A) (A) (A) (A) (A)
                 (A) (A) (A) (A) (A) (A) (A) (A) (A) (A) (A) (A)
                 (A) (A) (A) (A) (A) (A) (A) (A) (A) (A) (A) (A)
                 (A) (A) (A) (A) (A) (A) (A) (A) (A) (A) (A) (A)
                 (A) (A) (A) (A) (A) (A) (A) (A) (A) (A) (A) (A)
                 (A) (A) (A) (A) (A) (A) (A) (A) (A) (A) (A) (A)
                 (A) (A) (A) (A) (A) (A) (A) (A) (A) (A) (A) (A)
                 (A) (A) (A) (A) (A) (A) (A) (A) (A) (A) (A) (A)
                 (A) (A) (A) (A) (A) (A) (A) (A) (A) (A) (A) (A)
                 (A) (A) (A) (A) (A) (A) (A) (A) (A) (A) (A) (A)
                 (A) (A) (A) (A) (A) (A) (A) (A) (A) (A) (A) (A)
                 (A) (A) (A) (A) (A) (A) (A) (A) (A) (A) (A) (A)
                 (A) (A) (A) (A) (A) (A) (A) (A) (A) (A) (A) (A)
                 (A) (A) (A) (A) (A) (A) (A) (A) (A) (A) (A) (A)
                 (A) (A) (A) (A) (A) (A) (A) (A) (A) (A) (A) (A)
                 (A) (A) (A) (A) (A) (A) (A) (A) (A) (A) (A) (A)
                 (A) (A) (A) (A) (A) (A) (A) (A) (A) (A) (A) (A)
                 (A) (A) (A) (A) (A) (A) (A) (A) (A) (A) (A) (A)
                 (A) (A) (A) (A) (A) (A) (A) (A) (A) (A) (A) (A)
                 (A) (A) (A) (A) (A) (A) (A) (A) (A) (A) (A) (A)
                 (A) (A) (A) (A) (A) (A) (A) (A) (A) (A) (A) (A)
                 (A) (A) (A) (A) (A) (A) (A) (A) (A) (A) (A) (A)
                 (A) (A) (A) (A) (A) (A) (A) (A) (A) (A) (A) (A)
                 (A) (A) (A) (A) (A) (A) (A) (A) (A) (A) (A) (A)
                 (A) (A) (A) (A) (A) (A) (A) (A) (A) (A) (A) (A)
                 (A) (A) (A) (A) (A) (A) (A) (A) (A) (A) (A) (A)
                 (A) (A) (A) (A) (A) (A) (A) (A) (A) (A) (A) (A)
                 (A) (A) (A) (A) (A) (A) (A) (A) (A) (A) (A) (A)
                 (A) (A) (A) (A) (A) (A) (A) (A) (A) (A) (A) (A)
                 (A) (A) (A) (A) (A) (A) (A) (A) (A) (A) (A) (A)
                 (A) (A) (A) (A) (A) (A) (A) (A) (A) (A) (A) (A)
                 (A) (A) (A) (A) (A) (A) (A) (A) (A) (A) (A) (A)
                 (A) (A) (A) (A) (A) (A) (A) (A) (A) (A) (A) (A)
                 (A) (A) (A) (A) (A) (A) (A) (A) (A) (A) (A) (A)
                 (A) (A) (A) (A) (A) (A) (A) (A) (A) (A) (A) (A)
                 (A) (A) (A) (A) (A) (A) (A) (A) (A) (A) (A) (A)
                 (A) (A) (A) (A) (A) (A) (A) (A) (A) (A) (A) (A)
                 (A) (A) (A) (A) (A) (A) (A) (A) (A) (A) (A) (A)
                 (A) (A) (A) (A) (A) (A) (A) (A) (A) (A) (A) (A)
                 (A) (A) (A) (A) (A) (A) (A) (A) (A) (A) (A) (A)
                 (A) (A) (A) (A) (A) (A) (A) (A) (A) (A) (A) (A)
                 (A) (A) (A) (A) (A) (A) (A) (A) (A) (A) (A) (A)
                 (A) (A) (A) (A) (A) (A) (A) (A) (A) (A) (A) (A)
                 (A) (A) (A) (A) (A) (A) (A) (A) (A) (A) (A) (A)
                 (A) (A) (A) (A) (A) (A) (A) (A) (A) (A) (A) (A)
                 (A) (A) (A) (A) (A) (A) (A) (A) (A) (A) (A) (A)
                 (A) (A) (A) (A) (A) (A) (A) (A) (A) (A) (A) (A)
                 (A) (A) (A) (A) (A) (A) (A) (A) (A) (A) (A) (A)
                 (A) (A) (A) (A) (A) (A) (A) (A) (A) (A) (A) (A)
                 (A) (A) (A) (A) (A) (A) (A) (A) (A) (A) (A) (A)
                 (A) (A) (A) (A) (A) (A) (A) (A) (A) (A) (A) (A)
                 (A) (A) (A) (A) (A) (A) (A) (A) (A) (A) (A) (A)
                 (A) (A) (A) (A) (A) (A) (A) (A) (A) (A) (A) (A)
                 (A) (A) (A) (A) (A) (A) (A) (A) (A) (A) (A) (A)
   600 initial guesses have been made.
 Convergence on wavefunction:    0.001000000000000
 Iteration     1 Dimension   600 NMult     0 NNew    600
 CISAX will form    72 AO SS matrices at one time.
 New state      3 was old state      4
 New state      4 was old state      3
 New state      6 was old state      7
 New state      7 was old state      8
 New state      8 was old state     10
 New state     10 was old state      6
 New state     11 was old state     12
 New state     12 was old state     14
 New state     13 was old state     17
 New state     14 was old state     18
 New state     15 was old state     13
 New state     17 was old state     20
 New state     18 was old state     21
 New state     20 was old state     26
 New state     21 was old state     22
 New state     22 was old state     27
 New state     24 was old state     28
 New state     26 was old state     24
 New state     27 was old state     29
 New state     28 was old state     32
 New state     29 was old state     33
 New state     30 was old state     35
 New state     31 was old state     41
 New state     32 was old state     31
 New state     33 was old state     38
 New state     34 was old state     30
 New state     35 was old state     34
 New state     37 was old state     39
 New state     38 was old state     40
 New state     39 was old state     44
 New state     40 was old state     47
 New state     41 was old state     43
 New state     42 was old state     49
 New state     43 was old state     55
 New state     44 was old state     37
 New state     45 was old state     46
 New state     46 was old state     42
 New state     47 was old state     64
 New state     48 was old state     52
 New state     49 was old state     62
 New state     50 was old state     71
 New state     51 was old state     54
 New state     52 was old state     50
 New state     53 was old state     51
 New state     54 was old state     48
 New state     55 was old state     56
 New state     56 was old state     58
 New state     57 was old state     63
 New state     58 was old state     59
 New state     59 was old state     81
 New state     60 was old state     65
 New state     61 was old state     60
 New state     62 was old state     53
 New state     63 was old state     66
 New state     64 was old state     67
 New state     65 was old state     70
 New state     66 was old state     73
 New state     67 was old state     69
 New state     68 was old state     72
 New state     69 was old state     57
 New state     70 was old state     74
 New state     71 was old state     75
 New state     72 was old state     68
 New state     73 was old state    107
 New state     74 was old state     76
 New state     75 was old state     79
 New state     76 was old state     77
 New state     77 was old state     87
 New state     78 was old state     82
 New state     79 was old state    100
 New state     81 was old state     86
 New state     82 was old state     84
 New state     83 was old state    103
 New state     84 was old state     88
 New state     86 was old state     92
 New state     87 was old state     78
 New state     88 was old state     89
 New state     89 was old state     90
 New state     90 was old state     93
 New state     91 was old state     94
 New state     92 was old state     96
 New state     93 was old state    148
 New state     94 was old state    108
 New state     95 was old state     91
 New state     96 was old state    110
 New state     97 was old state     99
 New state     99 was old state    101
 New state    100 was old state     95
 New state    101 was old state    189
 New state    102 was old state     97
 New state    103 was old state    158
 New state    104 was old state    102
 New state    106 was old state    104
 New state    107 was old state    121
 New state    108 was old state    136
 New state    109 was old state    113
 New state    110 was old state    127
 New state    111 was old state    112
 New state    112 was old state    111
 New state    113 was old state    130
 New state    114 was old state    106
 New state    115 was old state    117
 New state    116 was old state    115
 New state    117 was old state    142
 New state    120 was old state    128
 New state    121 was old state    135
 New state    122 was old state    141
 New state    123 was old state    137
 New state    124 was old state    122
 New state    125 was old state    129
 New state    126 was old state    125
 New state    127 was old state    116
 New state    128 was old state    120
 New state    129 was old state    123
 New state    130 was old state    124
 New state    131 was old state    126
 New state    132 was old state    139
 New state    133 was old state    109
 New state    134 was old state    131
 New state    135 was old state    134
 New state    136 was old state    132
 New state    137 was old state    133
 New state    139 was old state    151
 New state    140 was old state    147
 New state    141 was old state    144
 New state    142 was old state    143
 New state    143 was old state    146
 New state    144 was old state    140
 New state    145 was old state    173
 New state    146 was old state    153
 New state    147 was old state    145
 New state    148 was old state    156
 New state    149 was old state    161
 New state    150 was old state    174
 Iteration     2 Dimension   900 NMult   600 NNew    300
 New state      3 was old state      4
 New state      4 was old state      3
 New state      7 was old state      8
 New state      8 was old state      7
 New state     11 was old state     12
 New state     12 was old state     11
 New state     13 was old state     15
 New state     14 was old state     20
 New state     15 was old state     13
 New state     16 was old state     14
 New state     17 was old state     16
 New state     19 was old state     17
 New state     20 was old state     19
 New state     24 was old state     25
 New state     25 was old state     24
 New state     27 was old state     49
 New state     28 was old state     27
 New state     29 was old state     32
 New state     30 was old state     28
 New state     31 was old state     29
 New state     32 was old state     30
 New state     33 was old state     31
 New state     35 was old state     33
 New state     36 was old state     35
 New state     37 was old state     36
 New state     38 was old state     39
 New state     39 was old state     38
 New state     40 was old state     37
 New state     42 was old state     40
 New state     43 was old state     42
 New state     44 was old state     45
 New state     45 was old state     44
 New state     46 was old state     43
 New state     47 was old state     46
 New state     48 was old state     47
 New state     49 was old state     82
 New state     50 was old state     48
 New state     52 was old state     54
 New state     53 was old state     50
 New state     54 was old state     52
 New state     55 was old state     56
 New state     56 was old state     53
 New state     57 was old state     55
 New state     58 was old state     61
 New state     59 was old state     58
 New state     60 was old state     57
 New state     61 was old state     59
 New state     62 was old state     69
 New state     63 was old state     62
 New state     64 was old state     60
 New state     65 was old state     68
 New state     66 was old state     63
 New state     67 was old state     64
 New state     68 was old state     65
 New state     69 was old state     67
 New state     70 was old state     66
 New state     71 was old state     87
 New state     73 was old state     70
 New state     74 was old state     71
 New state     75 was old state     73
 New state     76 was old state     79
 New state     77 was old state     74
 New state     78 was old state     81
 New state     79 was old state     80
 New state     80 was old state     75
 New state     81 was old state     77
 New state     82 was old state     76
 New state     84 was old state     78
 No map to state     85
 New state     86 was old state     94
 New state     87 was old state     84
 New state     88 was old state     85
 New state     89 was old state     86
 New state     90 was old state     88
 New state     91 was old state     90
 New state     92 was old state     89
 New state     93 was old state     91
 New state     94 was old state     92
 New state     95 was old state     93
 New state     97 was old state     95
 New state     98 was old state     97
 New state     99 was old state    100
 New state    100 was old state     98
 New state    101 was old state     99
 New state    102 was old state    101
 New state    103 was old state    102
 New state    105 was old state    103
 New state    107 was old state    105
 New state    108 was old state    107
 New state    109 was old state    114
 New state    110 was old state    108
 New state    112 was old state    109
 New state    113 was old state    110
 New state    114 was old state    119
 New state    115 was old state    112
 New state    116 was old state    113
 New state    119 was old state    116
 New state    120 was old state    123
 New state    122 was old state    120
 New state    123 was old state    122
 New state    124 was old state    125
 New state    125 was old state    124
 New state    126 was old state    133
 New state    127 was old state    131
 New state    128 was old state    126
 New state    129 was old state    130
 New state    130 was old state    127
 New state    131 was old state    128
 New state    132 was old state    129
 New state    133 was old state    132
 New state    134 was old state    136
 New state    135 was old state    134
 New state    136 was old state    135
 New state    138 was old state    139
 New state    139 was old state    152
 No map to state    140
 New state    142 was old state    138
 New state    143 was old state    140
 New state    146 was old state    142
 New state    147 was old state    143
 New state    148 was old state    146
 New state    149 was old state    148
 New state    150 was old state    147
 Iteration     3 Dimension  1200 NMult   900 NNew    300
 New state     51 was old state     52
 New state     52 was old state     51
 New state     81 was old state     82
 New state     82 was old state     81
 New state    140 was old state    141
 New state    141 was old state    140
 Iteration     4 Dimension  1498 NMult  1200 NNew    298
 Iteration     5 Dimension  1604 NMult  1498 NNew    106
 New state    137 was old state    138
 New state    138 was old state    137
 Iteration     6 Dimension  1618 NMult  1604 NNew     14
 Convergence on energies, max DE= 2.99D-06.
 ***********************************************************************
 Excited states from <AA,BB:AA,BB> singles matrix:
 ***********************************************************************
 
 Ground to excited state transition densities written to RWF  633
 Ground to excited state transition electric dipole moments (Au):
       state          X           Y           Z        Dip. S.      Osc.
         1         9.4947     -1.1612      0.0000     91.4975      4.3162
         2        -0.0000     -0.0000     -0.0466      0.0022      0.0001
         3        -0.0000      0.0000      0.1787      0.0319      0.0023
         4        -0.9194      0.5346     -0.0000      1.1312      0.0860
         5        -1.4667      0.3719     -0.0000      2.2895      0.1926
         6        -0.0000     -0.0000      0.0023      0.0000      0.0000
         7        -1.8053     -0.6980      0.0000      3.7464      0.3489
         8         0.0000      0.0000      0.0334      0.0011      0.0001
         9        -0.0000      0.0000      0.0835      0.0070      0.0007
        10        -0.7201     -0.2939     -0.0000      0.6049      0.0628
        11        -0.0000     -0.0000      0.1769      0.0313      0.0035
        12         0.1457     -0.0534      0.0000      0.0241      0.0027
        13        -0.9472      0.5186     -0.0000      1.1662      0.1386
        14         0.0000     -0.0000      0.0895      0.0080      0.0010
        15        -0.0192     -0.1197      0.0000      0.0147      0.0018
        16         0.0000      0.0000      0.0203      0.0004      0.0000
        17        -0.2440     -0.1508      0.0000      0.0823      0.0100
        18         0.0312     -0.0658      0.0000      0.0053      0.0007
        19        -0.0000     -0.0000     -0.2814      0.0792      0.0099
        20        -0.0000     -0.0000      0.0072      0.0001      0.0000
        21         0.2341     -0.4518     -0.0000      0.2589      0.0328
        22         0.1035     -0.0577     -0.0000      0.0140      0.0018
        23        -0.0000      0.0000     -0.0592      0.0035      0.0005
        24        -0.2785      0.2675      0.0000      0.1491      0.0196
        25         0.0000     -0.0000     -0.1713      0.0293      0.0039
        26        -0.0000      0.0000      0.0866      0.0075      0.0010
        27        -0.2262      0.1437      0.0000      0.0718      0.0095
        28         0.0000     -0.0000     -0.0225      0.0005      0.0001
        29         0.0000      0.0000     -0.0377      0.0014      0.0002
        30         0.0731     -0.0597     -0.0000      0.0089      0.0012
        31         0.0000      0.0000      0.0560      0.0031      0.0004
        32         0.0728      0.0034     -0.0000      0.0053      0.0007
        33         0.0628     -0.1211     -0.0000      0.0186      0.0026
        34         0.0000      0.0000     -0.0033      0.0000      0.0000
        35        -0.0000      0.0000      0.0495      0.0024      0.0003
        36         0.2212      0.1345     -0.0000      0.0670      0.0094
        37         0.0000      0.0000      0.0546      0.0030      0.0004
        38        -0.0167     -0.0310      0.0000      0.0012      0.0002
        39         0.0000     -0.0000     -0.0402      0.0016      0.0002
        40         0.0821     -0.0133      0.0000      0.0069      0.0010
        41         0.0000     -0.0000      0.1382      0.0191      0.0027
        42        -0.0406      0.1528     -0.0000      0.0250      0.0036
        43        -0.0158     -0.0444      0.0002      0.0022      0.0003
        44        -0.0000     -0.0001     -0.1014      0.0103      0.0015
        45         0.0415     -0.0483      0.0000      0.0041      0.0006
        46         0.0947     -0.1226     -0.0000      0.0240      0.0034
        47         0.0034      0.0214     -0.0000      0.0005      0.0001
        48        -0.0000      0.0000      0.0109      0.0001      0.0000
        49        -0.0000     -0.0000      0.1263      0.0160      0.0023
        50        -0.0000      0.0000     -0.0722      0.0052      0.0008
        51        -0.0631      0.0274     -0.0001      0.0047      0.0007
        52        -0.0003      0.0001      0.0133      0.0002      0.0000
        53         0.0550     -0.0268     -0.0000      0.0037      0.0006
        54         0.0925     -0.2547      0.0000      0.0734      0.0109
        55        -0.1007      0.3126     -0.0000      0.1079      0.0161
        56         0.0000     -0.0000     -0.0391      0.0015      0.0002
        57         0.0000     -0.0000     -0.0131      0.0002      0.0000
        58         0.1954     -0.1471     -0.0000      0.0598      0.0090
        59        -0.0000      0.0000     -0.0250      0.0006      0.0001
        60         0.2468     -0.1461      0.0000      0.0822      0.0125
        61         0.1176     -0.1221      0.0000      0.0287      0.0044
        62        -0.0000      0.0000     -0.0271      0.0007      0.0001
        63        -0.1386      0.0912      0.0000      0.0275      0.0042
        64         0.0000      0.0000      0.0925      0.0086      0.0013
        65        -0.0311      0.2847     -0.0000      0.0820      0.0127
        66         0.0000     -0.0000      0.0329      0.0011      0.0002
        67         0.0601     -0.0273     -0.0000      0.0044      0.0007
        68        -0.0000      0.0000     -0.0012      0.0000      0.0000
        69        -0.4085      0.3995      0.0000      0.3265      0.0507
        70        -0.0000      0.0000      0.0487      0.0024      0.0004
        71        -0.3462      0.2040      0.0000      0.1614      0.0252
        72        -0.0000     -0.0000      0.0391      0.0015      0.0002
        73         0.0000     -0.0000     -0.0695      0.0048      0.0008
        74         0.0482     -0.0333      0.0000      0.0034      0.0005
        75        -0.0461     -0.0253      0.0000      0.0028      0.0004
        76         0.0407     -0.2624      0.0000      0.0705      0.0111
        77        -0.0000      0.0000      0.0185      0.0003      0.0001
        78         0.0432      0.0067     -0.0000      0.0019      0.0003
        79        -0.0000     -0.0001     -0.0273      0.0007      0.0001
        80        -0.0298     -0.1332      0.0000      0.0186      0.0029
        81        -0.1011      0.2548      0.0000      0.0752      0.0119
        82        -0.0000      0.0001     -0.0596      0.0036      0.0006
        83        -0.1283      0.1100      0.0000      0.0286      0.0045
        84         0.0000     -0.0000      0.0286      0.0008      0.0001
        85        -0.0370      0.0364      0.0000      0.0027      0.0004
        86        -0.0000     -0.0000      0.0302      0.0009      0.0001
        87         0.0000      0.0000      0.0180      0.0003      0.0001
        88         0.1070      0.0449     -0.0000      0.0135      0.0022
        89        -0.0000      0.0000     -0.0132      0.0002      0.0000
        90         0.0000     -0.0000     -0.0148      0.0002      0.0000
        91        -0.0372      0.2964     -0.0000      0.0892      0.0145
        92         0.0452     -0.2006     -0.0000      0.0423      0.0069
        93        -0.0000      0.0000     -0.0424      0.0018      0.0003
        94         0.0000     -0.0000     -0.0225      0.0005      0.0001
        95        -0.0087      0.1171      0.0000      0.0138      0.0022
        96        -0.0000     -0.0000      0.0433      0.0019      0.0003
        97        -0.1911      0.0098      0.0000      0.0366      0.0060
        98        -0.0000      0.0000      0.0590      0.0035      0.0006
        99        -0.0000     -0.0000     -0.0753      0.0057      0.0009
       100         0.0277      0.0928     -0.0000      0.0094      0.0015
       101         0.1915      0.0315      0.0000      0.0376      0.0062
       102        -0.0000      0.0000      0.0423      0.0018      0.0003
       103        -0.0000     -0.0000      0.0375      0.0014      0.0002
       104        -0.0000     -0.0000      0.0628      0.0039      0.0007
       105         0.0854      0.1267      0.0000      0.0234      0.0039
       106        -0.1858      0.1679      0.0000      0.0627      0.0104
       107         0.0000     -0.0000      0.1580      0.0250      0.0042
       108        -0.0000      0.0000      0.0650      0.0042      0.0007
       109        -0.0000      0.0000      0.0047      0.0000      0.0000
       110         0.0015     -0.0061     -0.0000      0.0000      0.0000
       111        -0.0474     -0.0695      0.0621      0.0109      0.0019
       112         0.2849      0.4182      0.0103      0.2562      0.0434
       113         0.0000      0.0000     -0.0602      0.0036      0.0006
       114         0.0000      0.0000     -0.0344      0.0012      0.0002
       115        -0.0155     -0.0840      0.0000      0.0073      0.0012
       116        -0.0384      0.0286      0.0000      0.0023      0.0004
       117         0.0000      0.0000     -0.0398      0.0016      0.0003
       118         0.0250      0.1098     -0.0001      0.0127      0.0022
       119        -0.0000     -0.0001     -0.1325      0.0176      0.0030
       120         0.0000      0.0000      0.0460      0.0021      0.0004
       121        -0.0000     -0.0000     -0.0541      0.0029      0.0005
       122        -0.0038     -0.0429     -0.0000      0.0019      0.0003
       123         0.1948      0.3155      0.0000      0.1375      0.0236
       124         0.0899      0.0828      0.0000      0.0149      0.0026
       125        -0.0000     -0.0000      0.0298      0.0009      0.0002
       126        -0.0000      0.0000     -0.0373      0.0014      0.0002
       127        -0.0204      0.1542     -0.0000      0.0242      0.0042
       128        -0.0000      0.0000      0.0117      0.0001      0.0000
       129        -0.0000     -0.0000      0.0690      0.0048      0.0008
       130        -0.0027      0.0681      0.0000      0.0046      0.0008
       131         0.0000     -0.0000     -0.0303      0.0009      0.0002
       132         0.0989      0.0193      0.0000      0.0102      0.0018
       133        -0.0358      0.0164     -0.0000      0.0016      0.0003
       134         0.0000      0.0000     -0.1064      0.0113      0.0020
       135         0.1001      0.0232      0.0000      0.0106      0.0018
       136        -0.0815     -0.0239      0.0000      0.0072      0.0013
       137        -0.0017      0.1277     -0.0005      0.0163      0.0028
       138         0.0000     -0.0013     -0.0484      0.0023      0.0004
       139        -0.1668      0.0554     -0.0000      0.0309      0.0054
       140         0.0191     -0.3002      0.0000      0.0905      0.0159
       141        -0.0000      0.0000     -0.0159      0.0003      0.0000
       142         0.0399     -0.0659      0.0000      0.0059      0.0010
       143        -0.0000      0.0000      0.0610      0.0037      0.0007
       144        -0.0000      0.0000      0.0316      0.0010      0.0002
       145         0.0000     -0.0000      0.0349      0.0012      0.0002
       146        -0.0000      0.0000      0.0468      0.0022      0.0004
       147         0.0184     -0.0151      0.0000      0.0006      0.0001
       148         0.0249     -0.0922      0.0000      0.0091      0.0016
       149        -0.0087      0.0047      0.0000      0.0001      0.0000
       150        -0.0000      0.0000      0.0421      0.0018      0.0003
 Ground to excited state transition velocity dipole moments (Au):
       state          X           Y           Z        Dip. S.      Osc.
         1        -0.6698      0.0819     -0.0000      0.4553      4.2896
         2        -0.0000     -0.0000      0.0042      0.0000      0.0001
         3         0.0000     -0.0000     -0.0197      0.0004      0.0024
         4         0.1040     -0.0614      0.0000      0.0146      0.0852
         5         0.1845     -0.0474      0.0000      0.0363      0.1918
         6         0.0000      0.0000     -0.0003      0.0000      0.0000
         7         0.2513      0.0956      0.0000      0.0723      0.3449
         8         0.0000     -0.0000     -0.0049      0.0000      0.0001
         9         0.0000     -0.0000     -0.0130      0.0002      0.0007
        10         0.1119      0.0450     -0.0000      0.0146      0.0623
        11        -0.0000     -0.0000     -0.0296      0.0009      0.0035
        12        -0.0243      0.0095     -0.0000      0.0007      0.0027
        13         0.1678     -0.0932      0.0000      0.0369      0.1378
        14        -0.0000      0.0000     -0.0158      0.0003      0.0009
        15         0.0035      0.0218     -0.0000      0.0005      0.0018
        16        -0.0000     -0.0000     -0.0041      0.0000      0.0001
        17         0.0438      0.0269      0.0000      0.0026      0.0096
        18        -0.0063      0.0128     -0.0000      0.0002      0.0007
        19        -0.0000      0.0000      0.0556      0.0031      0.0110
        20         0.0000      0.0000     -0.0012      0.0000      0.0000
        21        -0.0447      0.0868      0.0000      0.0095      0.0335
        22        -0.0203      0.0113      0.0000      0.0005      0.0018
        23         0.0000     -0.0000      0.0119      0.0001      0.0005
        24         0.0546     -0.0529     -0.0000      0.0058      0.0196
        25        -0.0000      0.0000      0.0348      0.0012      0.0041
        26         0.0000     -0.0000     -0.0174      0.0003      0.0010
        27         0.0446     -0.0289     -0.0000      0.0028      0.0095
        28         0.0000      0.0000      0.0044      0.0000      0.0001
        29         0.0000      0.0000      0.0076      0.0001      0.0002
        30        -0.0151      0.0123     -0.0000      0.0004      0.0012
        31        -0.0000     -0.0000     -0.0115      0.0001      0.0004
        32        -0.0146     -0.0005      0.0000      0.0002      0.0007
        33        -0.0112      0.0258      0.0000      0.0008      0.0026
        34         0.0000     -0.0000      0.0005      0.0000      0.0000
        35         0.0000     -0.0000     -0.0119      0.0001      0.0004
        36        -0.0471     -0.0286      0.0000      0.0030      0.0096
        37        -0.0000     -0.0000     -0.0110      0.0001      0.0004
        38         0.0045      0.0070     -0.0000      0.0001      0.0002
        39         0.0000     -0.0000      0.0074      0.0001      0.0002
        40        -0.0173      0.0030     -0.0000      0.0003      0.0010
        41        -0.0000      0.0000     -0.0304      0.0009      0.0029
        42         0.0094     -0.0314      0.0000      0.0011      0.0034
        43         0.0031      0.0090     -0.0000      0.0001      0.0003
        44         0.0000      0.0000      0.0216      0.0005      0.0014
        45        -0.0090      0.0102     -0.0000      0.0002      0.0006
        46        -0.0219      0.0241      0.0000      0.0011      0.0033
        47        -0.0008     -0.0053      0.0000      0.0000      0.0001
        48        -0.0000      0.0000     -0.0024      0.0000      0.0000
        49        -0.0000      0.0000     -0.0279      0.0008      0.0024
        50         0.0000     -0.0000      0.0165      0.0003      0.0008
        51         0.0128     -0.0079      0.0000      0.0002      0.0007
        52         0.0001     -0.0000     -0.0033      0.0000      0.0000
        53        -0.0120      0.0063      0.0000      0.0002      0.0006
        54        -0.0220      0.0561      0.0000      0.0036      0.0109
        55         0.0228     -0.0696     -0.0000      0.0054      0.0160
        56        -0.0000      0.0000      0.0087      0.0001      0.0002
        57        -0.0000      0.0000      0.0029      0.0000      0.0000
        58        -0.0437      0.0334      0.0000      0.0030      0.0090
        59        -0.0000     -0.0000      0.0055      0.0000      0.0001
        60        -0.0553      0.0331     -0.0000      0.0042      0.0122
        61        -0.0263      0.0279      0.0000      0.0015      0.0043
        62         0.0000      0.0000      0.0063      0.0000      0.0001
        63         0.0317     -0.0216      0.0000      0.0015      0.0043
        64        -0.0000     -0.0000     -0.0216      0.0005      0.0013
        65         0.0077     -0.0643      0.0000      0.0042      0.0121
        66        -0.0000      0.0000     -0.0079      0.0001      0.0002
        67        -0.0140      0.0068     -0.0000      0.0002      0.0007
        68         0.0000     -0.0000      0.0006      0.0000      0.0000
        69         0.0947     -0.0948     -0.0000      0.0180      0.0514
        70        -0.0000     -0.0000     -0.0115      0.0001      0.0004
        71         0.0804     -0.0468     -0.0000      0.0087      0.0247
        72        -0.0000      0.0000     -0.0095      0.0001      0.0003
        73        -0.0000      0.0000      0.0174      0.0003      0.0009
        74        -0.0112      0.0079     -0.0000      0.0002      0.0005
        75         0.0110      0.0057     -0.0000      0.0002      0.0004
        76        -0.0092      0.0609      0.0000      0.0038      0.0107
        77         0.0000     -0.0000     -0.0027      0.0000      0.0000
        78        -0.0103     -0.0016      0.0000      0.0001      0.0003
        79         0.0000      0.0000      0.0051      0.0000      0.0001
        80         0.0073      0.0305     -0.0000      0.0010      0.0028
        81         0.0234     -0.0602     -0.0000      0.0042      0.0117
        82         0.0000     -0.0000      0.0147      0.0002      0.0006
        83         0.0302     -0.0267      0.0000      0.0016      0.0046
        84        -0.0000     -0.0000     -0.0076      0.0001      0.0002
        85         0.0094     -0.0083     -0.0000      0.0002      0.0004
        86         0.0000      0.0000     -0.0073      0.0001      0.0001
        87        -0.0000      0.0000     -0.0034      0.0000      0.0000
        88        -0.0260     -0.0112     -0.0000      0.0008      0.0022
        89        -0.0000      0.0000      0.0029      0.0000      0.0000
        90         0.0000      0.0000      0.0038      0.0000      0.0000
        91         0.0097     -0.0703      0.0000      0.0050      0.0138
        92        -0.0116      0.0478      0.0000      0.0024      0.0066
        93         0.0000     -0.0000      0.0113      0.0001      0.0004
        94        -0.0000      0.0000      0.0052      0.0000      0.0001
        95         0.0022     -0.0284     -0.0000      0.0008      0.0022
        96        -0.0000      0.0000     -0.0121      0.0001      0.0004
        97         0.0469     -0.0016     -0.0000      0.0022      0.0060
        98         0.0000     -0.0000     -0.0143      0.0002      0.0006
        99         0.0000      0.0000      0.0186      0.0003      0.0009
       100        -0.0071     -0.0230      0.0000      0.0006      0.0016
       101        -0.0468     -0.0076     -0.0000      0.0022      0.0060
       102         0.0000      0.0000     -0.0110      0.0001      0.0003
       103         0.0000      0.0000     -0.0096      0.0001      0.0002
       104         0.0000      0.0000     -0.0153      0.0002      0.0006
       105        -0.0211     -0.0318     -0.0000      0.0015      0.0039
       106         0.0474     -0.0423     -0.0000      0.0040      0.0108
       107        -0.0000      0.0000     -0.0402      0.0016      0.0043
       108        -0.0000     -0.0000     -0.0136      0.0002      0.0005
       109         0.0000      0.0000     -0.0020      0.0000      0.0000
       110        -0.0004      0.0016     -0.0000      0.0000      0.0000
       111         0.0122      0.0180     -0.0150      0.0007      0.0018
       112        -0.0732     -0.1085     -0.0025      0.0171      0.0450
       113        -0.0000     -0.0000      0.0154      0.0002      0.0006
       114        -0.0000     -0.0000      0.0082      0.0001      0.0002
       115         0.0046      0.0217     -0.0000      0.0005      0.0013
       116         0.0095     -0.0075     -0.0000      0.0001      0.0004
       117        -0.0000     -0.0000      0.0103      0.0001      0.0003
       118        -0.0064     -0.0288      0.0000      0.0009      0.0023
       119         0.0000      0.0000      0.0336      0.0011      0.0029
       120        -0.0000     -0.0000     -0.0133      0.0002      0.0005
       121        -0.0000      0.0000      0.0142      0.0002      0.0005
       122         0.0007      0.0116      0.0000      0.0001      0.0003
       123        -0.0514     -0.0830     -0.0000      0.0095      0.0246
       124        -0.0237     -0.0216     -0.0000      0.0010      0.0027
       125         0.0000      0.0000     -0.0059      0.0000      0.0001
       126         0.0000     -0.0000      0.0100      0.0001      0.0003
       127         0.0041     -0.0397      0.0000      0.0016      0.0041
       128        -0.0000     -0.0000     -0.0025      0.0000      0.0000
       129        -0.0000      0.0000     -0.0176      0.0003      0.0008
       130         0.0004     -0.0177     -0.0000      0.0003      0.0008
       131        -0.0000     -0.0000      0.0084      0.0001      0.0002
       132        -0.0257     -0.0047     -0.0000      0.0007      0.0017
       133         0.0078     -0.0042      0.0000      0.0001      0.0002
       134        -0.0000      0.0000      0.0270      0.0007      0.0019
       135        -0.0265     -0.0060     -0.0000      0.0007      0.0019
       136         0.0210      0.0058     -0.0000      0.0005      0.0012
       137        -0.0003     -0.0347      0.0001      0.0012      0.0031
       138         0.0000      0.0004      0.0131      0.0002      0.0004
       139         0.0438     -0.0155      0.0000      0.0022      0.0055
       140        -0.0056      0.0784      0.0000      0.0062      0.0157
       141         0.0000     -0.0000      0.0044      0.0000      0.0000
       142        -0.0109      0.0171     -0.0000      0.0004      0.0010
       143        -0.0000     -0.0000     -0.0159      0.0003      0.0006
       144         0.0000     -0.0000     -0.0085      0.0001      0.0002
       145        -0.0000      0.0000     -0.0096      0.0001      0.0002
       146         0.0000     -0.0000     -0.0111      0.0001      0.0003
       147        -0.0054      0.0040     -0.0000      0.0000      0.0001
       148        -0.0069      0.0243     -0.0000      0.0006      0.0016
       149         0.0022     -0.0008      0.0000      0.0000      0.0000
       150        -0.0000     -0.0000     -0.0116      0.0001      0.0003
 Ground to excited state transition magnetic dipole moments (Au):
       state          X           Y           Z
         1        -0.0197     -0.2668      0.0000
         2        -0.0000     -0.0000     -0.4137
         3        -0.0000     -0.0000      0.9948
         4         0.0107     -0.0372      0.0000
         5         0.0103      0.1357     -0.0000
         6        -0.0000      0.0000     -0.1688
         7        -0.0056      0.5803     -0.0000
         8         0.0000      0.0000      0.0737
         9        -0.0000     -0.0000     -0.3556
        10        -0.0046      0.1327     -0.0000
        11         0.0000     -0.0000     -0.2104
        12         0.0001      0.1186      0.0000
        13         0.0191      0.2317      0.0000
        14        -0.0000     -0.0000      0.0534
        15        -0.0578      0.0697     -0.0000
        16         0.0000     -0.0000     -0.3177
        17         0.0098      0.1202     -0.0000
        18         0.4040      0.8253     -0.0000
        19         0.0000      0.0000      0.2473
        20         0.0000     -0.0000     -0.0818
        21        -0.1803     -0.9516     -0.0000
        22        -0.2146     -0.3722      0.0000
        23        -0.0000      0.0000      0.2339
        24        -0.1885      0.2401     -0.0000
        25         0.0000     -0.0000     -0.4051
        26        -0.0000     -0.0000     -0.4245
        27         0.1461      0.4416      0.0000
        28        -0.0000      0.0000      0.7198
        29        -0.0000      0.0000      0.6162
        30         0.1693      0.5164      0.0000
        31        -0.0000     -0.0000     -0.1706
        32        -0.0106      0.3962      0.0000
        33         0.0660     -0.0106      0.0000
        34         0.0000     -0.0000     -0.5585
        35         0.0000     -0.0000     -0.2547
        36         0.0621      0.0387      0.0000
        37         0.0000     -0.0000     -1.3637
        38        -0.0228     -0.0653     -0.0002
        39        -0.0000      0.0000      0.6639
        40        -0.1089     -0.4358     -0.0000
        41        -0.0000      0.0000     -1.1020
        42         0.1156      0.2728      0.0000
        43         0.0547     -0.1811     -0.0012
        44         0.0001     -0.0003      0.5995
        45        -0.1004      0.0082     -0.0001
        46         0.0219      0.2281      0.0000
        47         0.0241      0.3468      0.0001
        48        -0.0000      0.0000      0.2237
        49         0.0000     -0.0000     -2.1736
        50        -0.0000     -0.0000      0.3304
        51         0.0185      0.1415      0.0023
        52         0.0001      0.0007     -0.5007
        53        -0.0222      0.0505      0.0002
        54        -0.0075     -0.2652      0.0000
        55         0.0655      0.3641      0.0000
        56        -0.0000     -0.0000     -0.5439
        57        -0.0000     -0.0000      0.0117
        58         0.1030      0.6092     -0.0000
        59         0.0000     -0.0000     -0.6931
        60         0.0325      0.0337      0.0000
        61         0.0640     -0.0484     -0.0000
        62         0.0000     -0.0000      0.6544
        63         0.3578      0.1992     -0.0000
        64        -0.0000     -0.0000      0.2251
        65         0.0185     -0.1729      0.0000
        66         0.0000      0.0000      0.1345
        67         0.2706      0.4741      0.0000
        68         0.0000      0.0000     -0.2683
        69         0.0601      0.4553      0.0000
        70         0.0000     -0.0000     -0.1212
        71         0.0530      0.3937     -0.0000
        72         0.0000     -0.0000     -0.2919
        73         0.0000     -0.0001      0.2560
        74         0.0150     -0.2738     -0.0000
        75         0.2011      0.3020     -0.0000
        76        -0.0664     -0.3105     -0.0000
        77        -0.0000     -0.0000      0.4376
        78         0.0242     -0.1227      0.0000
        79         0.0000     -0.0002     -0.0373
        80         0.0339     -0.5154      0.0000
        81        -0.1102      0.1073     -0.0001
        82        -0.0000      0.0001      0.3168
        83        -0.0561      0.3195      0.0000
        84         0.0000     -0.0000      0.2750
        85        -0.0701      0.2986      0.0000
        86         0.0000     -0.0000     -0.0264
        87         0.0000     -0.0000     -0.3115
        88         0.1272      0.0091      0.0000
        89         0.0000     -0.0000     -0.4736
        90        -0.0000      0.0000      0.7899
        91         0.1838      0.1031      0.0000
        92         0.1016     -0.2623      0.0002
        93        -0.0000      0.0001      0.9913
        94         0.0000     -0.0000      1.2701
        95        -0.1382     -0.1744     -0.0000
        96         0.0000      0.0000     -0.1655
        97         0.0075      0.0341      0.0000
        98        -0.0000     -0.0001     -0.3291
        99        -0.0000     -0.0001     -0.3738
       100         0.2593      0.6451     -0.0001
       101        -0.1816      0.6358     -0.0000
       102         0.0000      0.0000      0.5389
       103         0.0000      0.0000     -0.5951
       104         0.0000     -0.0000     -1.5177
       105         0.0229      0.0210     -0.0000
       106        -0.0023      0.1453     -0.0000
       107         0.0000      0.0000     -1.7807
       108         0.0000     -0.0000     -0.5257
       109         0.0000      0.0000     -1.4167
       110         0.2116      0.3128      0.0000
       111        -0.0472     -0.1121     -2.4663
       112         0.2842      0.6740     -0.4100
       113        -0.0000      0.0000      2.0055
       114         0.0000      0.0000      1.2016
       115         0.2674      0.3672     -0.0000
       116         0.0914     -0.0243     -0.0001
       117         0.0000      0.0000      0.4302
       118         0.1424     -0.1017      0.0003
       119        -0.0001      0.0001      0.4913
       120        -0.0000     -0.0000      0.6599
       121        -0.0000      0.0000      0.2574
       122         0.3018      0.5125      0.0000
       123        -0.0244     -0.3603      0.0001
       124        -0.4369     -0.3605      0.0001
       125         0.0000      0.0000      2.4757
       126         0.0000      0.0000      1.3325
       127         0.1894      0.1315      0.0001
       128         0.0000     -0.0000     -0.7596
       129         0.0000     -0.0000     -0.8959
       130        -0.0824      0.0893     -0.0000
       131        -0.0000     -0.0000      1.1073
       132         0.1821      0.4832     -0.0000
       133        -0.1251      0.3998      0.0000
       134         0.0000     -0.0000     -1.0917
       135        -0.1003      0.0245     -0.0000
       136        -0.0119     -0.4435     -0.0000
       137        -0.0543     -0.0328     -0.0010
       138         0.0006      0.0003     -0.1023
       139         0.1013      0.2056     -0.0000
       140         0.0833     -0.2521     -0.0000
       141        -0.0000      0.0000      0.4493
       142         0.1576     -0.1072      0.0000
       143        -0.0000     -0.0000     -0.1804
       144         0.0000      0.0000     -0.7178
       145        -0.0000     -0.0000      0.2451
       146         0.0000     -0.0000     -0.5045
       147        -0.1069      0.0337     -0.0001
       148        -0.2509      0.1147      0.0000
       149        -0.1066      0.1473      0.0001
       150        -0.0000      0.0000     -1.8052
 Ground to excited state transition velocity quadrupole moments (Au):
       state          XX          YY          ZZ          XY          XZ          YZ
         1        -0.0000     -0.0000      0.0000      0.0000      0.1253     -0.0134
         2        -4.6438     -0.0473     -0.0086      0.1104      0.0000      0.0000
         3        20.4449      0.2870      0.0669     -0.9701      0.0000     -0.0000
         4        -0.0001      0.0000     -0.0000      0.0000      0.0865     -0.0145
         5        -0.0000      0.0000     -0.0000     -0.0000     -0.1175      0.0069
         6         4.5565      0.2068      0.0123     -0.8158     -0.0000      0.0000
         7        -0.0001     -0.0000      0.0000     -0.0000     -0.6983      0.0877
         8         1.8024      0.0727     -0.0011     -0.1189     -0.0000     -0.0000
         9         7.5303      0.2822      0.0299     -0.8889      0.0000     -0.0000
        10        -0.0001     -0.0000      0.0000     -0.0000     -0.1584      0.0302
        11         6.9816     -0.1251      0.0223     -0.0666      0.0000     -0.0000
        12        -0.0000     -0.0000      0.0000      0.0000     -0.1458      0.0107
        13        -0.0000      0.0000     -0.0000      0.0000     -0.2382      0.0088
        14         5.1459     -0.2148      0.0078      0.0941      0.0000     -0.0000
        15         0.0001     -0.0000     -0.0000     -0.0000      0.0813     -0.0427
        16         0.6943     -0.1019      0.0057     -0.2794     -0.0000      0.0000
        17        -0.0000     -0.0000      0.0000     -0.0000     -0.1484      0.0300
        18         0.0000     -0.0000      0.0000      0.0000     -0.8488      0.3643
        19        -0.6667      0.0295     -0.0525      0.1618     -0.0000      0.0000
        20        -1.1974     -0.1891     -0.0231      0.1389      0.0000      0.0000
        21        -0.0001      0.0000     -0.0000     -0.0000      1.0467     -0.1545
        22         0.0000     -0.0000      0.0000      0.0000      0.4177     -0.1900
        23         1.1683      0.0287     -0.0135      0.2132     -0.0000     -0.0000
        24        -0.0000     -0.0000      0.0000      0.0000     -0.4213     -0.0521
        25         1.3498      0.0255      0.0183     -0.4396      0.0000      0.0000
        26         2.4993      0.1217     -0.0128     -0.7691      0.0000     -0.0000
        27         0.0000     -0.0000      0.0000      0.0000     -0.4642      0.0591
        28         1.0137     -0.0760      0.0273      0.7475     -0.0000     -0.0000
        29        -2.3837      0.0071      0.0154      0.7492     -0.0000     -0.0000
        30         0.0000     -0.0000      0.0000      0.0000     -0.4797      0.1311
        31        -0.3739      0.0253      0.0588     -0.1958      0.0000     -0.0000
        32        -0.0000      0.0000      0.0000      0.0000     -0.3582     -0.0500
        33        -0.0000     -0.0000     -0.0000      0.0000      0.0323      0.0582
        34         1.7482      0.3966      0.0249     -0.8254      0.0000     -0.0000
        35         1.3576     -0.0558     -0.0015     -0.3078      0.0000      0.0000
        36        -0.0000     -0.0000      0.0000      0.0000     -0.1240      0.0301
        37         1.0981      0.0573     -0.0492     -1.3847     -0.0000      0.0000
        38         0.0006      0.0000     -0.0000     -0.0002      0.0775     -0.0249
        39        -2.9354     -0.0470      0.0353      0.8930     -0.0000     -0.0000
        40         0.0001      0.0000     -0.0000     -0.0000      0.4460     -0.1453
        41         1.9357     -0.0372      0.0408     -1.0893     -0.0000     -0.0000
        42        -0.0001     -0.0000      0.0000      0.0001     -0.2409      0.1078
        43         0.0044      0.0000      0.0000     -0.0014      0.0333      0.0234
        44        -2.2197     -0.0155     -0.0017      0.7240      0.0001      0.0000
        45         0.0002      0.0000     -0.0000     -0.0001      0.1241     -0.0934
        46        -0.0000     -0.0000     -0.0000      0.0000     -0.1240      0.0315
        47        -0.0001     -0.0000      0.0000      0.0001     -0.3683      0.0328
        48        -0.3386      0.0070      0.0034      0.2133     -0.0000      0.0000
        49         3.5037      0.1992     -0.0447     -2.1937      0.0000      0.0000
        50         0.4838     -0.0562     -0.0643      0.2910     -0.0000     -0.0000
        51        -0.0071      0.0002      0.0002      0.0024     -0.0870     -0.0082
        52         1.5371     -0.0368     -0.0382     -0.5215     -0.0004     -0.0000
        53        -0.0006      0.0000      0.0000      0.0002      0.0174      0.0267
        54        -0.0000     -0.0000      0.0000      0.0000      0.2923     -0.0159
        55         0.0000      0.0000     -0.0000      0.0000     -0.3637      0.0620
        56         1.0160     -0.0142     -0.0231     -0.4867      0.0000     -0.0000
        57        -0.7566      0.0674     -0.0017      0.0573      0.0000     -0.0000
        58        -0.0000     -0.0000      0.0000     -0.0000     -0.4962      0.0520
        59        -0.9959      0.4307      0.0167     -0.6482      0.0000      0.0000
        60         0.0000     -0.0000      0.0000      0.0000     -0.0071      0.0693
        61        -0.0000      0.0000      0.0000     -0.0000     -0.1375      0.0018
        62        -0.5130     -0.4588      0.0115      0.6541      0.0000      0.0000
        63         0.0000      0.0000     -0.0000     -0.0000     -0.1381      0.1140
        64         0.1159      0.0293      0.0539      0.1810      0.0000     -0.0000
        65        -0.0000      0.0000     -0.0000      0.0000      0.2398     -0.0198
        66        -1.0628     -0.0685     -0.0312      0.1692     -0.0000      0.0000
        67        -0.0000      0.0000     -0.0000      0.0000     -0.4396      0.1498
        68        -0.4903      0.0747      0.0349     -0.2214     -0.0000      0.0000
        69        -0.0000      0.0000     -0.0000      0.0000     -0.5757      0.0851
        70         1.0089      0.0078      0.0283     -0.1863      0.0000      0.0000
        71        -0.0000     -0.0000      0.0000     -0.0000     -0.4905      0.0155
        72        -1.1374      0.1438      0.0217     -0.2936      0.0000      0.0000
        73         0.7441     -0.0492     -0.0347      0.1885      0.0000      0.0000
        74        -0.0001      0.0000      0.0000     -0.0000      0.2189      0.0366
        75        -0.0000      0.0000      0.0000     -0.0000     -0.3044      0.1415
        76        -0.0000      0.0000     -0.0000     -0.0000      0.3222     -0.0079
        77        -0.5262      0.0728     -0.0493      0.3520      0.0000      0.0000
        78         0.0000     -0.0000      0.0000      0.0000      0.1905      0.0266
        79         0.2535      0.0076      0.0753      0.0233      0.0002      0.0000
        80        -0.0002     -0.0000     -0.0000     -0.0000      0.4476      0.0389
        81         0.0002      0.0000      0.0000     -0.0001     -0.2406     -0.0317
        82        -0.3741     -0.0294     -0.0121      0.2924     -0.0001     -0.0000
        83        -0.0000     -0.0000      0.0000      0.0000     -0.2319      0.0210
        84        -0.4423     -0.0085     -0.0126      0.2449     -0.0000      0.0000
        85        -0.0000     -0.0000     -0.0000      0.0000     -0.2518     -0.0413
        86        -0.5537     -0.4961     -0.0483      0.1445      0.0000      0.0000
        87        -1.5307     -0.0416     -0.0113     -0.1399      0.0000     -0.0000
        88         0.0001     -0.0000     -0.0000      0.0000     -0.0747      0.0255
        89        -0.6977     -0.0201      0.0093     -0.3140      0.0000      0.0000
        90         0.0625     -0.0139      0.0388      0.5576     -0.0000     -0.0000
        91         0.0000     -0.0000     -0.0000      0.0000     -0.3133      0.1036
        92        -0.0001     -0.0000     -0.0000      0.0002      0.1474      0.0269
        93         0.0423     -0.1106      0.0153      0.9218     -0.0000     -0.0000
        94         0.5949     -0.0348      0.0815      1.2056      0.0000      0.0000
        95        -0.0001      0.0000      0.0000     -0.0000      0.0292     -0.0224
[...]
 Alpha virt. eigenvalues --    2.22108   2.22643   2.24526   2.24568   2.24959
 Alpha virt. eigenvalues --    2.25241   2.25537   2.25753   2.26333   2.26400
 Alpha virt. eigenvalues --    2.26958   2.27243   2.27901   2.27914   2.28525
 Alpha virt. eigenvalues --    2.28581   2.29420   2.30051   2.30107   2.31192
 Alpha virt. eigenvalues --    2.31578   2.31632   2.32260   2.32271   2.32349
 Alpha virt. eigenvalues --    2.32361   2.32824   2.33390   2.33855   2.33966
 Alpha virt. eigenvalues --    2.35066   2.35072   2.36759   2.36760   2.37175
 Alpha virt. eigenvalues --    2.37507   2.37643   2.37973   2.38429   2.38642
 Alpha virt. eigenvalues --    2.38648   2.39081   2.39358   2.39815   2.40522
 Alpha virt. eigenvalues --    2.40753   2.40966   2.41100   2.41519   2.41560
 Alpha virt. eigenvalues --    2.42433   2.42641   2.43368   2.43533   2.43914
 Alpha virt. eigenvalues --    2.44330   2.44980   2.45238   2.45403   2.46634
 Alpha virt. eigenvalues --    2.46635   2.46745   2.47355   2.47667   2.47801
 Alpha virt. eigenvalues --    2.48209   2.49604   2.49747   2.50447   2.50452
 Alpha virt. eigenvalues --    2.51048   2.51055   2.51389   2.51965   2.51978
 Alpha virt. eigenvalues --    2.52522   2.52836   2.52860   2.53210   2.53215
 Alpha virt. eigenvalues --    2.53872   2.53986   2.54646   2.54885   2.55136
 Alpha virt. eigenvalues --    2.55169   2.55692   2.55698   2.56671   2.56692
 Alpha virt. eigenvalues --    2.56772   2.57536   2.57934   2.58065   2.58187
 Alpha virt. eigenvalues --    2.58448   2.58529   2.58581   2.59474   2.59664
 Alpha virt. eigenvalues --    2.59707   2.59910   2.59920   2.60339   2.60889
 Alpha virt. eigenvalues --    2.61027   2.61047   2.61250   2.61464   2.61706
 Alpha virt. eigenvalues --    2.62255   2.62330   2.62389   2.63239   2.63674
 Alpha virt. eigenvalues --    2.63871   2.63888   2.64628   2.65248   2.65398
 Alpha virt. eigenvalues --    2.65635   2.65924   2.66236   2.66533   2.66550
 Alpha virt. eigenvalues --    2.66835   2.67886   2.68208   2.68229   2.68356
 Alpha virt. eigenvalues --    2.69057   2.69514   2.69680   2.70118   2.70790
 Alpha virt. eigenvalues --    2.71155   2.72228   2.72285   2.72519   2.73114
 Alpha virt. eigenvalues --    2.73170   2.73521   2.73896   2.74333   2.74404
 Alpha virt. eigenvalues --    2.74673   2.74990   2.75196   2.75594   2.75884
 Alpha virt. eigenvalues --    2.76250   2.76366   2.76461   2.76557   2.76925
 Alpha virt. eigenvalues --    2.77041   2.77286   2.77666   2.78069   2.78138
 Alpha virt. eigenvalues --    2.78770   2.78917   2.79155   2.79549   2.79664
 Alpha virt. eigenvalues --    2.80153   2.80975   2.81581   2.81612   2.82604
 Alpha virt. eigenvalues --    2.82881   2.83279   2.83486   2.83716   2.83922
 Alpha virt. eigenvalues --    2.84066   2.85170   2.85218   2.85608   2.85727
 Alpha virt. eigenvalues --    2.85857   2.85947   2.86569   2.86700   2.87974
 Alpha virt. eigenvalues --    2.88441   2.88770   2.88997   2.89300   2.89610
 Alpha virt. eigenvalues --    2.89618   2.89972   2.90188   2.90518   2.90551
 Alpha virt. eigenvalues --    2.91064   2.91466   2.91879   2.91920   2.92452
 Alpha virt. eigenvalues --    2.92862   2.92930   2.93232   2.93523   2.93986
 Alpha virt. eigenvalues --    2.95051   2.95155   2.95389   2.96119   2.96680
 Alpha virt. eigenvalues --    2.96681   2.96936   2.97026   2.97335   2.98606
 Alpha virt. eigenvalues --    2.98661   2.99039   2.99732   2.99823   3.00601
 Alpha virt. eigenvalues --    3.01290   3.01711   3.02519   3.02682   3.03227
 Alpha virt. eigenvalues --    3.03252   3.03595   3.03798   3.03841   3.03999
 Alpha virt. eigenvalues --    3.04474   3.04822   3.05245   3.05268   3.05697
 Alpha virt. eigenvalues --    3.06261   3.06622   3.06701   3.06785   3.06795
 Alpha virt. eigenvalues --    3.07160   3.08163   3.08862   3.09054   3.09379
 Alpha virt. eigenvalues --    3.09578   3.10061   3.10181   3.10357   3.10435
 Alpha virt. eigenvalues --    3.10576   3.10753   3.11161   3.11433   3.11988
 Alpha virt. eigenvalues --    3.12652   3.12658   3.12820   3.12972   3.13305
 Alpha virt. eigenvalues --    3.13328   3.13957   3.14073   3.14345   3.14956
 Alpha virt. eigenvalues --    3.15129   3.15839   3.16432   3.16494   3.16835
 Alpha virt. eigenvalues --    3.16868   3.16918   3.17019   3.17681   3.17797
 Alpha virt. eigenvalues --    3.18129   3.18531   3.19057   3.19090   3.19456
 Alpha virt. eigenvalues --    3.20074   3.20409   3.20709   3.20809   3.21183
 Alpha virt. eigenvalues --    3.21291   3.21464   3.21601   3.22032   3.22188
 Alpha virt. eigenvalues --    3.22278   3.22923   3.23170   3.23701   3.23734
 Alpha virt. eigenvalues --    3.23933   3.24522   3.25023   3.25243   3.25743
 Alpha virt. eigenvalues --    3.25881   3.26388   3.26489   3.26491   3.26870
 Alpha virt. eigenvalues --    3.27140   3.27332   3.27643   3.27973   3.28314
 Alpha virt. eigenvalues --    3.28435   3.28654   3.28657   3.28911   3.29128
 Alpha virt. eigenvalues --    3.29573   3.29599   3.29949   3.30272   3.30516
 Alpha virt. eigenvalues --    3.30567   3.30910   3.31722   3.31803   3.32024
 Alpha virt. eigenvalues --    3.32051   3.32179   3.32352   3.32404   3.33306
 Alpha virt. eigenvalues --    3.33310   3.33822   3.34134   3.34536   3.34610
 Alpha virt. eigenvalues --    3.34718   3.35126   3.35288   3.35543   3.35573
 Alpha virt. eigenvalues --    3.35907   3.35954   3.36492   3.36781   3.37107
 Alpha virt. eigenvalues --    3.37270   3.38179   3.38405   3.38588   3.38657
 Alpha virt. eigenvalues --    3.38699   3.39348   3.39855   3.39866   3.40071
 Alpha virt. eigenvalues --    3.40366   3.40752   3.40753   3.41105   3.41920
 Alpha virt. eigenvalues --    3.42230   3.42355   3.42637   3.42692   3.43823
 Alpha virt. eigenvalues --    3.43878   3.44252   3.44740   3.45000   3.46057
 Alpha virt. eigenvalues --    3.46277   3.46561   3.47378   3.47687   3.48629
 Alpha virt. eigenvalues --    3.49133   3.49301   3.49301   3.49564   3.49721
 Alpha virt. eigenvalues --    3.49735   3.50326   3.50633   3.51020   3.51312
 Alpha virt. eigenvalues --    3.52294   3.52430   3.52788   3.53160   3.53668
 Alpha virt. eigenvalues --    3.53691   3.54744   3.54814   3.55166   3.55200
 Alpha virt. eigenvalues --    3.55626   3.55645   3.56087   3.56419   3.56579
 Alpha virt. eigenvalues --    3.56946   3.57053   3.57675   3.58294   3.58571
 Alpha virt. eigenvalues --    3.58691   3.59488   3.59874   3.60373   3.60776
 Alpha virt. eigenvalues --    3.61032   3.61055   3.61419   3.61560   3.61991
 Alpha virt. eigenvalues --    3.62867   3.62970   3.63554   3.63755   3.64884
 Alpha virt. eigenvalues --    3.64944   3.65226   3.65328   3.66213   3.66667
 Alpha virt. eigenvalues --    3.67826   3.68038   3.69023   3.69266   3.69823
 Alpha virt. eigenvalues --    3.70138   3.70383   3.71451   3.71569   3.71669
 Alpha virt. eigenvalues --    3.72354   3.72534   3.72911   3.73988   3.74169
 Alpha virt. eigenvalues --    3.74752   3.74760   3.75151   3.75654   3.76037
 Alpha virt. eigenvalues --    3.76131   3.77042   3.77750   3.78198   3.79134
 Alpha virt. eigenvalues --    3.79793   3.79947   3.80439   3.80869   3.82341
 Alpha virt. eigenvalues --    3.82384   3.82881   3.83427   3.83797   3.83979
 Alpha virt. eigenvalues --    3.85118   3.85733   3.85888   3.85965   3.86012
 Alpha virt. eigenvalues --    3.86904   3.87205   3.87674   3.88425   3.88772
 Alpha virt. eigenvalues --    3.88979   3.88989   3.89587   3.90235   3.90247
 Alpha virt. eigenvalues --    3.90970   3.91219   3.92293   3.92947   3.94063
 Alpha virt. eigenvalues --    3.94169   3.95545   3.95980   3.96996   3.97158
 Alpha virt. eigenvalues --    3.97588   3.97880   3.98525   3.98882   3.99014
 Alpha virt. eigenvalues --    3.99931   4.00788   4.00863   4.01565   4.02124
 Alpha virt. eigenvalues --    4.02193   4.02900   4.03193   4.04103   4.06410
 Alpha virt. eigenvalues --    4.06779   4.07381   4.07598   4.07780   4.08314
 Alpha virt. eigenvalues --    4.10615   4.10627   4.11640   4.11777   4.12801
 Alpha virt. eigenvalues --    4.13106   4.13193   4.13409   4.13464   4.14102
 Alpha virt. eigenvalues --    4.14874   4.15496   4.16209   4.17533   4.17915
 Alpha virt. eigenvalues --    4.18114   4.18797   4.19276   4.19755   4.19967
 Alpha virt. eigenvalues --    4.21132   4.21984   4.22641   4.22941   4.23573
 Alpha virt. eigenvalues --    4.23736   4.24135   4.24629   4.24703   4.25721
 Alpha virt. eigenvalues --    4.26421   4.26573   4.27487   4.27830   4.29102
 Alpha virt. eigenvalues --    4.29362   4.29894   4.30081   4.30468   4.31504
 Alpha virt. eigenvalues --    4.31618   4.32716   4.32793   4.33307   4.33392
 Alpha virt. eigenvalues --    4.33779   4.34572   4.34713   4.35313   4.36224
 Alpha virt. eigenvalues --    4.36367   4.36610   4.37914   4.37961   4.38468
 Alpha virt. eigenvalues --    4.38912   4.39515   4.40084   4.40478   4.41083
 Alpha virt. eigenvalues --    4.41456   4.41509   4.41969   4.42116   4.43638
 Alpha virt. eigenvalues --    4.44926   4.45113   4.45232   4.45808   4.45843
 Alpha virt. eigenvalues --    4.45896   4.46320   4.47176   4.47464   4.47778
 Alpha virt. eigenvalues --    4.49137   4.49523   4.50618   4.50918   4.51632
 Alpha virt. eigenvalues --    4.51697   4.52182   4.52782   4.52834   4.53634
 Alpha virt. eigenvalues --    4.55010   4.55380   4.57110   4.58290   4.59307
 Alpha virt. eigenvalues --    4.59590   4.61187   4.61293   4.62265   4.62627
 Alpha virt. eigenvalues --    4.63202   4.63458   4.65001   4.66150   4.66251
 Alpha virt. eigenvalues --    4.66633   4.68755   4.69931   4.70063   4.70943
 Alpha virt. eigenvalues --    4.71095   4.72103   4.72486   4.72557   4.72681
 Alpha virt. eigenvalues --    4.73998   4.75876   4.78121   4.78367   4.79841
 Alpha virt. eigenvalues --    4.80570   4.80999   4.81607   4.83886   4.84211
 Alpha virt. eigenvalues --    4.85219   4.87043   4.88465   4.89016   4.89797
 Alpha virt. eigenvalues --    4.90592   4.92881   4.95436   4.95850   4.96100
 Alpha virt. eigenvalues --    4.96716   4.97707   4.97926   4.99359   5.00517
 Alpha virt. eigenvalues --    5.00728   5.01722   5.02036   5.04079   5.07583
 Alpha virt. eigenvalues --    5.07904   5.09719   5.09877   5.11912   5.12259
 Alpha virt. eigenvalues --    5.13670   5.15527   5.16140   5.17399   5.17514
 Alpha virt. eigenvalues --    5.18121   5.19135   5.20029   5.21463   5.22176
 Alpha virt. eigenvalues --    5.23841   5.25153   5.29501   5.29524   5.31314
 Alpha virt. eigenvalues --    5.31841   5.33143   5.33722   5.39262   5.40701
 Alpha virt. eigenvalues --    5.50472   5.54455   5.59940   5.60324   5.66945
 Alpha virt. eigenvalues --    5.67510   5.68824   5.69655  22.31319  22.38904
 Alpha virt. eigenvalues --   22.39020  22.40515  22.40714  22.41826  22.41968
 Alpha virt. eigenvalues --   22.42071  22.45047  22.45229  22.49819  22.49882
 Alpha virt. eigenvalues --   22.52487  22.52609  22.53241  22.56521  22.57056
 Alpha virt. eigenvalues --   22.58288  22.59237  22.59684  22.61139  22.68270
 Alpha virt. eigenvalues --   22.69544  22.70168  22.70836  22.71158  22.75786
 Alpha virt. eigenvalues --   22.77212  22.78632  22.79169  22.79766  22.81137
 Alpha virt. eigenvalues --   22.85401  22.86224  23.02846  23.07887  23.12709
 Alpha virt. eigenvalues --   23.14541  23.31482  23.31485
          Condensed to atoms (all electrons):
 Mulliken charges:
               1
     1  C   -0.207258
     2  C   -0.192004
     3  C   -0.188333
     4  C    0.073262
     5  C   -0.092741
     6  C    0.185788
     7  C   -0.151154
     8  C   -0.197068
     9  C    0.055702
    10  C   -0.183336
    11  C   -0.133458
    12  C   -0.216281
    13  C    0.094090
    14  C   -0.164105
    15  C   -0.157551
    16  C   -0.157551
    17  C   -0.164104
    18  C    0.094089
    19  C   -0.216281
    20  C   -0.133458
    21  C   -0.183335
    22  C    0.055700
    23  C   -0.197068
    24  C   -0.151155
    25  C   -0.092741
    26  C    0.185788
    27  C   -0.418929
    28  C   -0.438389
    29  C   -0.442973
    30  C   -0.207258
    31  C   -0.192004
    32  C   -0.188333
    33  C    0.073262
    34  C   -0.418927
    35  C   -0.438389
    36  C   -0.442974
    37  C   -0.422358
    38  C   -0.416418
    39  C   -0.416418
    40  C   -0.422358
    41  H    0.093643
    42  H    0.107732
    43  H    0.105815
    44  H    0.098464
    45  H    0.111566
    46  H    0.122543
    47  H    0.154397
    48  H    0.140809
    49  H    0.128884
    50  H    0.150795
    51  H    0.131179
    52  H    0.132179
    53  H    0.132598
    54  H    0.132598
    55  H    0.132179
    56  H    0.131180
    57  H    0.150796
    58  H    0.128884
    59  H    0.140809
    60  H    0.154397
    61  H    0.121670
    62  H    0.121906
    63  H    0.124042
    64  H    0.126091
    65  H    0.121007
    66  H    0.124816
    67  H    0.140033
    68  H    0.139432
    69  H    0.143956
    70  H    0.107732
    71  H    0.093643
    72  H    0.105815
    73  H    0.098464
    74  H    0.111566
    75  H    0.122543
    76  H    0.121906
    77  H    0.124041
    78  H    0.121670
    79  H    0.126092
    80  H    0.121007
    81  H    0.124816
    82  H    0.140033
    83  H    0.139432
    84  H    0.143956
    85  H    0.139229
    86  H    0.141340
    87  H    0.139735
    88  H    0.139102
    89  H    0.141545
    90  H    0.139007
    91  H    0.139007
    92  H    0.139102
    93  H    0.141545
    94  H    0.141340
    95  H    0.139735
    96  H    0.139229
 Sum of Mulliken charges =  -0.00000
 Mulliken charges with hydrogens summed into heavy atoms:
               1
     1  C   -0.005884
     2  C    0.012275
     3  C    0.045776
     4  C    0.073262
     5  C   -0.092741
     6  C    0.185788
     7  C    0.003242
     8  C   -0.056260
     9  C    0.055702
    10  C   -0.054452
    11  C    0.017337
    12  C   -0.085102
    13  C    0.094090
    14  C   -0.031925
    15  C   -0.024953
    16  C   -0.024953
    17  C   -0.031925
    18  C    0.094089
    19  C   -0.085101
    20  C    0.017337
    21  C   -0.054451
    22  C    0.055700
    23  C   -0.056259
    24  C    0.003242
    25  C   -0.092741
    26  C    0.185788
    27  C   -0.051311
    28  C   -0.066475
    29  C   -0.019552
    30  C   -0.005884
    31  C    0.012275
    32  C    0.045776
    33  C    0.073262
    34  C   -0.051310
    35  C   -0.066475
    36  C   -0.019552
    37  C   -0.002054
    38  C    0.003235
    39  C    0.003235
    40  C   -0.002054
 Electronic spatial extent (au):  <R**2>=         104488.4654
 Charge=             -0.0000 electrons
 Dipole moment (field-independent basis, Debye):
    X=              0.0000    Y=             -0.0000    Z=             -0.5267  Tot=              0.5267
 Quadrupole moment (field-independent basis, Debye-Ang):
   XX=           -154.6466   YY=           -229.7442   ZZ=           -263.8589
   XY=            -15.1659   XZ=             -0.0002   YZ=              0.0000
 Traceless Quadrupole moment (field-independent basis, Debye-Ang):
   XX=             61.4366   YY=            -13.6610   ZZ=            -47.7756
   XY=            -15.1659   XZ=             -0.0002   YZ=              0.0000
 Octapole moment (field-independent basis, Debye-Ang**2):
  XXX=              0.0060  YYY=              0.0002  ZZZ=             -7.1404  XYY=              0.0002
  XXY=             -0.0005  XXZ=            -89.3864  XZZ=              0.0001  YZZ=             -0.0000
  YYZ=              0.5049  XYZ=             10.4727
 Hexadecapole moment (field-independent basis, Debye-Ang**3):
 XXXX=        -117384.1941 YYYY=          -4081.4484 ZZZZ=           -860.3416 XXXY=          -1940.5647
 XXXZ=             -0.0337 YYYX=           -212.9052 YYYZ=             -0.0001 ZZZX=             -0.0016
 ZZZY=             -0.0001 XXYY=         -23241.8497 XXZZ=         -24537.8137 YYZZ=           -848.7682
 XXYZ=              0.0038 YYXZ=              0.0001 ZZXY=            -39.5170
 N-N= 3.637152187714D+03 E-N=-1.088408085826D+04  KE= 1.549151136583D+03
 Unable to Open any file for archive entry.
 1\1\GINC-CN02\SP\RB3LYP TD-FC\def2TZVP\C40H56\2100011873\06-Nov-2023\0
 \\# td=(nstates=150) b3lyp/def2TZVP scrf(smd, solvent=ethanol)\\B-1\\0
 ,1\C,0,-13.193247,-1.96518,0.357514\C,0,-14.150234,-1.366297,-0.666837
 \C,0,-14.19793,0.145886,-0.469985\C,0,-12.839886,0.781119,-0.265942\C,
 0,-11.699193,0.069117,-0.020535\C,0,-11.734254,-1.463294,0.19794\C,0,-
 10.43464,0.808638,0.027915\C,0,-9.147698,0.368486,0.051934\C,0,-7.9709
 78,1.218813,0.064023\C,0,-6.738479,0.618773,0.069992\C,0,-5.445845,1.2
 38015,0.078209\C,0,-4.280328,0.525977,0.08121\C,0,-2.942601,1.063627,0
 .086009\C,0,-1.885522,0.185039,0.0869\C,0,-0.488362,0.47987,0.088382\C
 ,0,0.488364,-0.479879,0.088381\C,0,1.885523,-0.185049,0.086901\C,0,2.9
 42603,-1.063636,0.08601\C,0,4.28033,-0.525984,0.08121\C,0,5.445847,-1.
 238022,0.078205\C,0,6.73848,-0.618778,0.069986\C,0,7.97098,-1.218816,0
 .064016\C,0,9.147699,-0.368486,0.051926\C,0,10.434641,-0.808636,0.0279
 11\C,0,11.699193,-0.069112,-0.020539\C,0,11.734248,1.463299,0.197935\C
 ,0,-11.0146,-1.853868,1.513234\C,0,-11.087577,-2.209256,-0.996377\C,0,
 -12.878927,2.293643,-0.398885\C,0,13.193238,1.965187,0.357525\C,0,14.1
 50237,1.366308,-0.666817\C,0,14.197934,-0.145875,-0.469969\C,0,12.8398
 89,-0.781111,-0.265939\C,0,11.014576,1.85387,1.51322\C,0,11.087582,2.2
 09257,-0.996389\C,0,12.878932,-2.293635,-0.398883\C,0,8.156563,-2.7171
 8,0.068498\C,0,2.769507,-2.564242,0.088788\C,0,-2.769504,2.564233,0.08
 879\C,0,-8.156557,2.717177,0.068503\H,0,-13.55224,-1.704444,1.363722\H
 ,0,-13.191791,-3.061587,0.302962\H,0,-15.153148,-1.798268,-0.563053\H,
 0,-13.813091,-1.597755,-1.685187\H,0,-14.836732,0.392637,0.395545\H,0,
 -14.68517,0.631298,-1.328645\H,0,-10.553209,1.886254,-0.000126\H,0,-8.
 931571,-0.694424,0.048253\H,0,-6.727188,-0.472294,0.066595\H,0,-5.3941
 9,2.323329,0.080545\H,0,-4.354073,-0.562407,0.078511\H,0,-2.136434,-0.
 876729,0.085263\H,0,-0.172471,1.5217,0.088524\H,0,0.172472,-1.521709,0
 .088521\H,0,2.136435,0.87672,0.085267\H,0,4.354074,0.5624,0.078514\H,0
 ,5.394193,-2.323335,0.080538\H,0,6.727188,0.472289,0.066588\H,0,8.9315
 68,0.694423,0.04824\H,0,10.553213,-1.886252,-0.000123\H,0,-11.41656,-1
 .280584,2.356412\H,0,-11.183965,-2.918133,1.720013\H,0,-9.93616,-1.690
 871,1.488587\H,0,-10.062275,-1.88498,-1.187807\H,0,-11.067226,-3.28877
 9,-0.800274\H,0,-11.653135,-2.045583,-1.919919\H,0,-13.913764,2.64896,
 -0.350635\H,0,-12.32451,2.809583,0.392139\H,0,-12.468777,2.633235,-1.3
 60075\H,0,13.19178,3.061594,0.302976\H,0,13.552222,1.70445,1.363737\H,
 0,15.153149,1.798281,-0.563022\H,0,13.813104,1.597768,-1.68517\H,0,14.
 836727,-0.392627,0.395567\H,0,14.685183,-0.631285,-1.328625\H,0,11.183
 932,2.918136,1.719999\H,0,9.936137,1.690867,1.488558\H,0,11.416527,1.2
 80589,2.356403\H,0,10.062283,1.884978,-1.18783\H,0,11.067226,3.288781,
 -0.800288\H,0,11.65315,2.045585,-1.919926\H,0,13.913771,-2.648951,-0.3
 50639\H,0,12.324521,-2.809577,0.392144\H,0,12.468777,-2.633229,-1.3600
 71\H,0,8.744087,-3.036457,0.93873\H,0,7.209146,-3.257946,0.093047\H,0,
 8.704221,-3.047232,-0.823677\H,0,3.248036,-3.011075,0.969534\H,0,1.721
 47,-2.868026,0.092705\H,0,3.242385,-3.013831,-0.793611\H,0,-3.242396,3
 .013825,-0.7936\H,0,-3.248019,3.011063,0.969546\H,0,-1.721466,2.868016
 ,0.092692\H,0,-7.20914,3.257941,0.093061\H,0,-8.704208,3.04723,-0.8236
 77\H,0,-8.744089,3.036455,0.93873\\Version=ES64L-G16RevC.02\State=1-A\
 HF=-1558.4973813\RMSD=5.463e-09\PG=C01 [X(C40H56)]\\@
 The archive entry for this job was punched.


 YOU ARE IN A MAZE OF TWISTY LITTLE PASSAGES.
 Job cpu time:       8 days 18 hours 56 minutes 54.8 seconds.
 Elapsed time:       0 days  6 hours 12 minutes 26.0 seconds.
 File lengths (MBytes):  RWF=  94400 Int=      0 D2E=      0 Chk=  10128 Scr=     32
 Normal termination of Gaussian 16 at Mon Nov  6 14:23:45 2023.
