 Entering Gaussian System, Link 0=g16
 Initial command:
 /nfs-share/home/2100011873/Gaussian16_AVX2/g16/l1.exe "/nfs-share/home/2100011873/GaussTmp/Gau-241775.inp" -scrdir="/nfs-share/home/2100011873/GaussTmp/"
 Entering Link 1 = /nfs-share/home/2100011873/Gaussian16_AVX2/g16/l1.exe PID=    241776.
  
 Copyright (c) 1988-2021, Gaussian, Inc.  All Rights Reserved.
  
 This is part of the Gaussian(R) 16 program.  It is based on
 the Gaussian(R) 09 system (copyright 2009, Gaussian, Inc.),
 the Gaussian(R) 03 system (copyright 2003, Gaussian, Inc.),
 the Gaussian(R) 98 system (copyright 1998, Gaussian, Inc.),
 the Gaussian(R) 94 system (copyright 1995, Gaussian, Inc.),
 the Gaussian 92(TM) system (copyright 1992, Gaussian, Inc.),
 the Gaussian 90(TM) system (copyright 1990, Gaussian, Inc.),
 the Gaussian 88(TM) system (copyright 1988, Gaussian, Inc.),
 the Gaussian 86(TM) system (copyright 1986, Carnegie Mellon
 University), and the Gaussian 82(TM) system (copyright 1983,
 Carnegie Mellon University). Gaussian is a federally registered
 trademark of Gaussian, Inc.
  
 This software contains proprietary and confidential information,
 including trade secrets, belonging to Gaussian, Inc.
  
 This software is provided under written license and may be
 used, copied, transmitted, or stored only in accord with that
 written license.
  
 The following legend is applicable only to US Government
 contracts under FAR:
  
                    RESTRICTED RIGHTS LEGEND
  
 Use, reproduction and disclosure by the US Government is
 subject to restrictions as set forth in subparagraphs (a)
 and (c) of the Commercial Computer Software - Restricted
 Rights clause in FAR 52.227-19.
  
 Gaussian, Inc.
 340 Quinnipiac St., Bldg. 40, Wallingford CT 06492
  
  
 ---------------------------------------------------------------
 Warning -- This program may not be used in any manner that
 competes with the business of Gaussian, Inc. or will provide
 assistance to any competitor of Gaussian, Inc.  The licensee
 of this program is prohibited from giving any competitor of
 Gaussian, Inc. access to this program.  By using this program,
 the user acknowledges that Gaussian, Inc. is engaged in the
 business of creating and licensing software in the field of
 computational chemistry and represents and warrants to the
 licensee that it is not a competitor of Gaussian, Inc. and that
 it will not use this program in any manner prohibited above.
 ---------------------------------------------------------------
  

 Cite this work as:
 Gaussian 16, Revision C.02,
 M. J. Frisch, G. W. Trucks, H. B. Schlegel, G. E. Scuseria, 
 M. A. Robb, J. R. Cheeseman, G. Scalmani, V. Barone, 
 G. A. Petersson, H. Nakatsuji, X. Li, M. Caricato, A. V. Marenich, 
 J. Bloino, B. G. Janesko, R. Gomperts, B. Mennucci, H. P. Hratchian, 
 J. V. Ortiz, A. F. Izmaylov, J. L. Sonnenberg, D. Williams-Young, 
 F. Ding, F. Lipparini, F. Egidi, J. Goings, B. Peng, A. Petrone, 
 T. Henderson, D. Ranasinghe, V. G. Zakrzewski, J. Gao, N. Rega, 
 G. Zheng, W. Liang, M. Hada, M. Ehara, K. Toyota, R. Fukuda, 
 J. Hasegawa, M. Ishida, T. Nakajima, Y. Honda, O. Kitao, H. Nakai, 
 T. Vreven, K. Throssell, J. A. Montgomery, Jr., J. E. Peralta, 
 F. Ogliaro, M. J. Bearpark, J. J. Heyd, E. N. Brothers, K. N. Kudin, 
 V. N. Staroverov, T. A. Keith, R. Kobayashi, J. Normand, 
 K. Raghavachari, A. P. Rendell, J. C. Burant, S. S. Iyengar, 
 J. Tomasi, M. Cossi, J. M. Millam, M. Klene, C. Adamo, R. Cammi, 
 J. W. Ochterski, R. L. Martin, K. Morokuma, O. Farkas, 
 J. B. Foresman, and D. J. Fox, Gaussian, Inc., Wallingford CT, 2019.
 
 ******************************************
 Gaussian 16:  ES64L-G16RevC.02  7-Dec-2021
                 3-Nov-2023 
 ******************************************
 %nprocshared=32
 Will use up to   32 processors via shared memory.
 %mem=128GB
 -----------------------------------------------------------
 # td=(nstates=50) b3lyp/def2TZVP scrf(smd, solvent=ethanol)
 -----------------------------------------------------------
 1/38=1,172=1/1;
 2/12=2,17=6,18=5,40=1/2;
 3/5=44,7=101,11=9,25=1,30=1,70=32201,72=4,74=-5/1,2,3,8;
 4//1;
 5/5=2,38=5,53=4/2;
 8/6=1,10=1,108=50/1;
 9/41=50,42=1,70=2/14;
 6/7=2,8=2,9=2,10=2/1;
 99/5=1,9=1/99;
 ---
 B-2
 ---
 Symbolic Z-matrix:
 Charge =  0 Multiplicity = 1
 C                     4.18604  -0.98524  -0.00011 
 C                     2.96568  -0.09996   0.00002 
 C                     1.72426  -0.63647  -0.00021 
 C                     0.45258   0.05967  -0.00018 
 C                    -0.74108  -0.57941  -0.00021 
 C                    -2.06437   0.04042  -0.00014 
 C                    -3.15288  -0.76323   0.00025 
 C                    -4.60417  -0.38585   0.00043 
 C                     3.26039   1.37827   0.00057 
 C                    -2.13318   1.55026  -0.00054 
 H                     4.81718  -0.79122  -0.87967 
 H                     4.8171   -0.79165   0.8796 
 H                     3.9221   -2.04745  -0.00037 
 H                     1.65238  -1.72528  -0.00049 
 H                     0.46913   1.14647  -0.00011 
 H                    -0.73542  -1.67054  -0.0003 
 H                    -2.96813  -1.83864   0.00044 
 H                    -4.77347   0.69375   0.00148 
 H                    -5.11489  -0.80271  -0.87923 
 H                    -5.11504  -0.80447   0.87914 
 H                     2.363     2.00076   0.00008 
 H                     3.85901   1.65372   0.88055 
 H                     3.86032   1.65418  -0.87836 
 H                    -1.62727   1.96404  -0.8821 
 H                    -3.15869   1.92368  -0.00045 
 H                    -1.62693   1.9646    0.88057 
 
                          Input orientation:                          
 ---------------------------------------------------------------------
 Center     Atomic      Atomic             Coordinates (Angstroms)
 Number     Number       Type             X           Y           Z
 ---------------------------------------------------------------------
      1          6           0        4.186043   -0.985243   -0.000113
      2          6           0        2.965678   -0.099955    0.000017
      3          6           0        1.724259   -0.636470   -0.000213
      4          6           0        0.452578    0.059668   -0.000179
      5          6           0       -0.741079   -0.579413   -0.000205
      6          6           0       -2.064372    0.040415   -0.000137
      7          6           0       -3.152878   -0.763225    0.000253
      8          6           0       -4.604173   -0.385851    0.000427
      9          6           0        3.260391    1.378273    0.000567
     10          6           0       -2.133175    1.550261   -0.000541
     11          1           0        4.817179   -0.791217   -0.879673
     12          1           0        4.817098   -0.791647    0.879598
     13          1           0        3.922096   -2.047445   -0.000374
     14          1           0        1.652379   -1.725280   -0.000493
     15          1           0        0.469127    1.146468   -0.000113
     16          1           0       -0.735417   -1.670538   -0.000304
     17          1           0       -2.968126   -1.838635    0.000440
     18          1           0       -4.773466    0.693748    0.001475
     19          1           0       -5.114894   -0.802710   -0.879231
     20          1           0       -5.115042   -0.804470    0.879137
     21          1           0        2.363003    2.000757    0.000075
     22          1           0        3.859006    1.653716    0.880554
     23          1           0        3.860320    1.654180   -0.878355
     24          1           0       -1.627265    1.964044   -0.882102
     25          1           0       -3.158688    1.923675   -0.000452
     26          1           0       -1.626926    1.964596    0.880567
 ---------------------------------------------------------------------
                    Distance matrix (angstroms):
                    1          2          3          4          5
     1  C    0.000000
     2  C    1.507656   0.000000
     3  C    2.486367   1.352394   0.000000
     4  C    3.876932   2.518164   1.449752   0.000000
     5  C    4.943807   3.737637   2.465998   1.353973   0.000000
     6  C    6.334008   5.032008   3.848623   2.517024   1.461264
     7  C    7.342278   6.154401   4.878784   3.698171   2.418793
     8  C    8.810628   7.575248   6.333393   5.076339   3.867940
     9  C    2.538314   1.507320   2.533553   3.102021   4.454694
    10  C    6.808913   5.359246   4.434139   2.984625   2.544296
    11  H    1.099820   2.163274   3.219247   4.532908   5.631390
    12  H    1.099819   2.163298   3.219286   4.532966   5.631379
    13  H    1.094505   2.169667   2.611769   4.059246   4.888795
    14  H    2.639528   2.089602   1.091180   2.150712   2.653611
    15  H    4.284817   2.790401   2.180418   1.086926   2.107905
    16  H    4.968943   4.020552   2.668202   2.098796   1.091140
    17  H    7.204888   6.183287   4.843932   3.912131   2.558394
    18  H    9.115471   7.779738   6.632489   5.264370   4.228603
    19  H    9.344174   8.158590   6.897414   5.702032   4.466856
    20  H    9.344300   8.158874   6.897646   5.702484   4.467152
    21  H    3.498524   2.185454   2.713478   2.723518   4.036410
    22  H    2.801184   2.156094   3.252360   3.862697   5.188775
    23  H    2.800707   2.156133   3.252840   3.863466   5.189697
    24  H    6.578050   5.112079   4.332795   2.954688   2.834121
    25  H    7.899802   6.450034   5.513394   4.063959   3.479983
    26  H    6.577823   5.111727   4.332639   2.954454   2.834161
                    6          7          8          9         10
     6  C    0.000000
     7  C    1.353027   0.000000
     8  C    2.575324   1.499556   0.000000
     9  C    5.490261   6.761363   8.059994   0.000000
    10  C    1.511413   2.528243   3.139166   5.396308   0.000000
    11  H    6.987198   8.018532   9.471049   2.811601   7.386665
    12  H    6.987195   8.018390   9.470901   2.811509   7.386845
    13  H    6.340107   7.190583   8.686666   3.489040   7.043422
    14  H    4.114841   4.900617   6.398321   3.495389   5.005955
    15  H    2.764411   4.094612   5.299658   2.800873   2.633444
    16  H    2.166444   2.582118   4.076481   5.026105   3.511022
    17  H    2.085090   1.091165   2.187974   7.010201   3.490238
    18  H    2.786761   2.179238   1.092792   8.062967   2.775744
    19  H    3.284715   2.150479   1.099275   8.699203   3.898617
    20  H    3.285352   2.150401   1.099254   8.699663   3.900016
    21  H    4.841961   6.169647   7.364607   1.092150   4.518690
    22  H    6.201997   7.468805   8.749849   1.099357   6.057497
    23  H    6.203022   7.469990   8.751093   1.099338   6.058328
    24  H    2.160850   3.247159   3.893950   5.001141   1.097411
    25  H    2.178117   2.686906   2.724580   6.442208   1.091382
    26  H    2.160896   3.247228   3.894001   5.000404   1.097412
                   11         12         13         14         15
    11  H    0.000000
    12  H    1.759271   0.000000
    13  H    1.775514   1.775502   0.000000
    14  H    3.414878   3.414920   2.292467   0.000000
    15  H    4.840848   4.840974   4.703624   3.105966   0.000000
    16  H    5.690151   5.690088   4.672739   2.388423   3.063731
    17  H    7.904597   7.904354   6.893385   4.621895   4.552532
    18  H    9.744846   9.744558   9.117398   6.866089   5.262104
    19  H    9.932080  10.086529   9.164548   6.886167   5.979418
    20  H   10.086754   9.932148   9.164518   6.886191   5.980149
    21  H    3.819955   3.820165   4.338054   3.793196   2.077637
    22  H    3.161359   2.626355   3.805077   4.130746   3.538948
    23  H    2.625937   3.160363   3.804825   4.131149   3.539671
    24  H    7.008732   7.226841   6.903977   5.014420   2.416856
    25  H    8.471017   8.471164   8.118331   6.038314   3.710134
    26  H    7.226302   7.008732   6.903925   5.014508   2.416272
                   16         17         18         19         20
    16  H    0.000000
    17  H    2.239028   0.000000
    18  H    4.679283   3.110019   0.000000
    19  H    4.550325   2.540782   1.769633   0.000000
    20  H    4.550231   2.539853   1.769639   1.758369   0.000000
    21  H    4.804021   6.569769   7.255168   8.034398   8.035123
    22  H    5.738928   7.718863   8.730057   9.468989   9.304634
    23  H    5.739819   7.720085   8.731483   9.305416   9.470526
    24  H    3.844886   4.127609   3.506129   4.451796   4.788655
    25  H    4.334814   3.767133   2.029835   3.468742   3.470414
    26  H    3.845117   4.127712   3.505506   4.787566   4.453614
                   21         22         23         24         25
    21  H    0.000000
    22  H    1.770228   0.000000
    23  H    1.770230   1.758910   0.000000
    24  H    4.086786   5.770826   5.496328   0.000000
    25  H    5.522229   7.077929   7.078829   1.767539   0.000000
    26  H    4.086087   5.494734   5.770618   1.762669   1.767530
                   26
    26  H    0.000000
 Stoichiometry    C10H16
 Framework group  C1[X(C10H16)]
 Deg. of freedom    72
 Full point group                 C1      NOp   1
 Largest Abelian subgroup         C1      NOp   1
 Largest concise Abelian subgroup C1      NOp   1
                         Standard orientation:                         
 ---------------------------------------------------------------------
 Center     Atomic      Atomic             Coordinates (Angstroms)
 Number     Number       Type             X           Y           Z
 ---------------------------------------------------------------------
      1          6           0        4.186043   -0.985243   -0.000113
      2          6           0        2.965678   -0.099955    0.000017
      3          6           0        1.724259   -0.636470   -0.000213
      4          6           0        0.452578    0.059668   -0.000179
      5          6           0       -0.741079   -0.579413   -0.000205
      6          6           0       -2.064372    0.040415   -0.000137
      7          6           0       -3.152878   -0.763225    0.000253
      8          6           0       -4.604173   -0.385851    0.000427
      9          6           0        3.260391    1.378273    0.000567
     10          6           0       -2.133175    1.550261   -0.000541
     11          1           0        4.817179   -0.791217   -0.879673
     12          1           0        4.817098   -0.791647    0.879598
     13          1           0        3.922096   -2.047445   -0.000374
     14          1           0        1.652379   -1.725280   -0.000493
     15          1           0        0.469127    1.146468   -0.000113
     16          1           0       -0.735417   -1.670538   -0.000304
     17          1           0       -2.968126   -1.838635    0.000440
     18          1           0       -4.773466    0.693748    0.001475
     19          1           0       -5.114894   -0.802710   -0.879231
     20          1           0       -5.115042   -0.804470    0.879137
     21          1           0        2.363003    2.000757    0.000075
     22          1           0        3.859006    1.653716    0.880554
     23          1           0        3.860320    1.654180   -0.878355
     24          1           0       -1.627265    1.964044   -0.882102
     25          1           0       -3.158688    1.923675   -0.000452
     26          1           0       -1.626926    1.964596    0.880567
 ---------------------------------------------------------------------
 Rotational constants (GHZ):           4.0045797           0.4300443           0.3921027
 Standard basis: def2TZVP (5D, 7F)
 There are   456 symmetry adapted cartesian basis functions of A   symmetry.
 There are   406 symmetry adapted basis functions of A   symmetry.
   406 basis functions,   638 primitive gaussians,   456 cartesian basis functions
    38 alpha electrons       38 beta electrons
       nuclear repulsion energy       478.6004483981 Hartrees.
 NAtoms=   26 NActive=   26 NUniq=   26 SFac= 1.00D+00 NAtFMM=   60 NAOKFM=F Big=F
 Integral buffers will be    131072 words long.
 Regular integral format.
 Two-electron integral symmetry is turned on.
 ------------------------------------------------------------------------------
 Polarizable Continuum Model (PCM)
 =================================
 Model                : PCM.
 Atomic radii         : SMD-Coulomb.
 Polarization charges : Total charges.
 Charge compensation  : None.
 Solution method      : On-the-fly selection.
 Cavity type          : VdW (van der Waals Surface) (Alpha=1.000).
 Cavity algorithm     : GePol (No added spheres)
                        Default sphere list used, NSphG=   26.
                        Lebedev-Laikov grids with approx.  5.0 points / Ang**2.
                        Smoothing algorithm: York/Karplus (Gamma=1.0000).
                        Polarization charges: spherical gaussians, with
                                              point-specific exponents (IZeta= 3).
                        Self-potential: point-specific (ISelfS= 7).
                        Self-field    : sphere-specific E.n sum rule (ISelfD= 2).
 Solvent              : Ethanol, Eps=  24.852000 Eps(inf)=   1.852593
 ------------------------------------------------------------------------------
 ------------------------------------------------------------------------------
 Atomic radii for non-electrostatic terms: SMD-CDS.
 ------------------------------------------------------------------------------
 Nuclear repulsion after PCM non-electrostatic terms =      478.5987318692 Hartrees.
 One-electron integrals computed using PRISM.
   1 Symmetry operations used in ECPInt.
 ECPInt:  NShTT=   15225 NPrTT=   44224 LenC2=   13758 LenP2D=   30430.
 LDataN:  DoStor=T MaxTD1= 6 Len=  172
 NBasis=   406 RedAO= T EigKep=  3.93D-05  NBF=   406
 NBsUse=   406 1.00D-06 EigRej= -1.00D+00 NBFU=   406
 ExpMin= 9.52D-02 ExpMax= 1.36D+04 ExpMxC= 4.63D+02 IAcc=3 IRadAn=         5 AccDes= 0.00D+00
 Harris functional with IExCor=  402 and IRadAn=       5 diagonalized for initial guess.
 HarFok:  IExCor=  402 AccDes= 0.00D+00 IRadAn=         5 IDoV= 1 UseB2=F ITyADJ=14
 ICtDFT=  3500011 ScaDFX=  1.000000  1.000000  1.000000  1.000000
 FoFCou: FMM=F IPFlag=           0 FMFlag=      100000 FMFlg1=           0
         NFxFlg=           0 DoJE=T BraDBF=F KetDBF=T FulRan=T
         wScrn=  0.000000 ICntrl=       500 IOpCl=  0 I1Cent=   200000004 NGrid=           0
         NMat0=    1 NMatS0=      1 NMatT0=    0 NMatD0=    1 NMtDS0=    0 NMtDT0=    0
 Petite list used in FoFCou.
 Requested convergence on RMS density matrix=1.00D-08 within 128 cycles.
 Requested convergence on MAX density matrix=1.00D-06.
 Requested convergence on             energy=1.00D-06.
 No special actions if energy rises.
 Inv3:  Mode=1 IEnd=    11116875.
 Iteration    1 A*A^-1 deviation from unit magnitude is 3.66D-15 for   1341.
 Iteration    1 A*A^-1 deviation from orthogonality  is 2.19D-15 for   1524     52.
 Iteration    1 A^-1*A deviation from unit magnitude is 3.33D-15 for    460.
 Iteration    1 A^-1*A deviation from orthogonality  is 2.06D-15 for   1550    268.
 Error on total polarization charges =  0.06328
 SCF Done:  E(RB3LYP) =  -390.828491763     A.U. after   11 cycles
            NFock= 11  Conv=0.90D-08     -V/T= 2.0061
 SMD-CDS (non-electrostatic) energy       (kcal/mol) =      -1.08
 (included in total energy above)
 DoSCS=F DFT=T ScalE2(SS,OS)=  1.000000  1.000000
 ExpMin= 9.52D-02 ExpMax= 1.36D+04 ExpMxC= 4.63D+02 IAcc=3 IRadAn=         5 AccDes= 0.00D+00
 HarFok:  IExCor=  205 AccDes= 0.00D+00 IRadAn=         5 IDoV=-2 UseB2=F ITyADJ=14
 ICtDFT= 12500011 ScaDFX=  1.000000  1.000000  1.000000  1.000000
 Range of M.O.s used for correlation:    11   406
 NBasis=   406 NAE=    38 NBE=    38 NFC=    10 NFV=     0
 NROrb=    396 NOA=    28 NOB=    28 NVA=   368 NVB=   368

 **** Warning!!: The largest alpha MO coefficient is  0.34432006D+02

 NEqPCM:  Using non-equilibrium solvation (IEInf=1, Eps=  24.8520, EpsInf=   1.8526)
 Inv3:  Mode=1 IEnd=    11116875.
 Iteration    1 A*A^-1 deviation from unit magnitude is 3.66D-15 for    120.
 Iteration    1 A*A^-1 deviation from orthogonality  is 2.50D-15 for   1342    412.
 Iteration    1 A^-1*A deviation from unit magnitude is 3.66D-15 for    120.
 Iteration    1 A^-1*A deviation from orthogonality  is 1.56D-15 for   1347     31.
 Orbital symmetries:
       Occupied  (A) (A) (A) (A) (A) (A) (A) (A) (A) (A) (A) (A)
                 (A) (A) (A) (A) (A) (A) (A) (A) (A) (A) (A) (A)
                 (A) (A) (A) (A) (A) (A) (A) (A) (A) (A) (A) (A)
                 (A) (A)
       Virtual   (A) (A) (A) (A) (A) (A) (A) (A) (A) (A) (A) (A)
                 (A) (A) (A) (A) (A) (A) (A) (A) (A) (A) (A) (A)
                 (A) (A) (A) (A) (A) (A) (A) (A) (A) (A) (A) (A)
                 (A) (A) (A) (A) (A) (A) (A) (A) (A) (A) (A) (A)
                 (A) (A) (A) (A) (A) (A) (A) (A) (A) (A) (A) (A)
                 (A) (A) (A) (A) (A) (A) (A) (A) (A) (A) (A) (A)
                 (A) (A) (A) (A) (A) (A) (A) (A) (A) (A) (A) (A)
                 (A) (A) (A) (A) (A) (A) (A) (A) (A) (A) (A) (A)
                 (A) (A) (A) (A) (A) (A) (A) (A) (A) (A) (A) (A)
                 (A) (A) (A) (A) (A) (A) (A) (A) (A) (A) (A) (A)
                 (A) (A) (A) (A) (A) (A) (A) (A) (A) (A) (A) (A)
                 (A) (A) (A) (A) (A) (A) (A) (A) (A) (A) (A) (A)
                 (A) (A) (A) (A) (A) (A) (A) (A) (A) (A) (A) (A)
                 (A) (A) (A) (A) (A) (A) (A) (A) (A) (A) (A) (A)
                 (A) (A) (A) (A) (A) (A) (A) (A) (A) (A) (A) (A)
                 (A) (A) (A) (A) (A) (A) (A) (A) (A) (A) (A) (A)
                 (A) (A) (A) (A) (A) (A) (A) (A) (A) (A) (A) (A)
                 (A) (A) (A) (A) (A) (A) (A) (A) (A) (A) (A) (A)
                 (A) (A) (A) (A) (A) (A) (A) (A) (A) (A) (A) (A)
                 (A) (A) (A) (A) (A) (A) (A) (A) (A) (A) (A) (A)
                 (A) (A) (A) (A) (A) (A) (A) (A) (A) (A) (A) (A)
                 (A) (A) (A) (A) (A) (A) (A) (A) (A) (A) (A) (A)
                 (A) (A) (A) (A) (A) (A) (A) (A) (A) (A) (A) (A)
                 (A) (A) (A) (A) (A) (A) (A) (A) (A) (A) (A) (A)
                 (A) (A) (A) (A) (A) (A) (A) (A) (A) (A) (A) (A)
                 (A) (A) (A) (A) (A) (A) (A) (A) (A) (A) (A) (A)
                 (A) (A) (A) (A) (A) (A) (A) (A) (A) (A) (A) (A)
                 (A) (A) (A) (A) (A) (A) (A) (A) (A) (A) (A) (A)
                 (A) (A) (A) (A) (A) (A) (A) (A) (A) (A) (A) (A)
                 (A) (A) (A) (A) (A) (A) (A) (A) (A) (A) (A) (A)
                 (A) (A) (A) (A) (A) (A) (A) (A)
   200 initial guesses have been made.
 Convergence on wavefunction:    0.001000000000000
 Iteration     1 Dimension   200 NMult     0 NNew    200
 CISAX will form   200 AO SS matrices at one time.
 New state      3 was old state      4
 New state      4 was old state      5
 New state      5 was old state      6
 New state      6 was old state      7
 New state      7 was old state     10
 New state      8 was old state      3
 New state      9 was old state      8
 New state     10 was old state     13
 New state     13 was old state     18
 New state     14 was old state     15
 New state     15 was old state      9
 New state     16 was old state     17
 New state     17 was old state     22
 New state     18 was old state     16
 New state     20 was old state     23
 New state     21 was old state     20
 New state     22 was old state     25
 New state     23 was old state     21
 New state     25 was old state     14
 New state     26 was old state     30
 New state     27 was old state     28
 New state     28 was old state     26
 New state     29 was old state     31
 New state     30 was old state     29
 New state     31 was old state     27
 New state     33 was old state     40
 New state     35 was old state     36
 New state     36 was old state     35
 New state     37 was old state     33
 New state     38 was old state     44
 New state     39 was old state     37
 New state     40 was old state     39
 New state     41 was old state     47
 New state     42 was old state     41
 New state     43 was old state     42
 New state     44 was old state     43
 New state     45 was old state     38
 New state     46 was old state     45
 New state     47 was old state     49
 New state     49 was old state     51
 New state     50 was old state     46
 Iteration     2 Dimension   300 NMult   200 NNew    100
 New state      5 was old state      8
 New state      6 was old state      5
 New state      7 was old state      6
 New state      8 was old state      7
 New state     13 was old state     15
 New state     14 was old state     13
 New state     15 was old state     14
 New state     19 was old state     25
 New state     21 was old state     19
 New state     22 was old state     21
 New state     24 was old state     22
 New state     25 was old state     24
 New state     26 was old state     28
 New state     27 was old state     26
 New state     28 was old state     27
 New state     29 was old state     31
 New state     31 was old state     29
 New state     38 was old state     39
 New state     39 was old state     38
 New state     40 was old state     45
 New state     41 was old state     40
 New state     42 was old state     41
 New state     43 was old state     42
 New state     44 was old state     43
 New state     45 was old state     44
 Iteration     3 Dimension   400 NMult   300 NNew    100
 Iteration     4 Dimension   478 NMult   400 NNew     78
 Iteration     5 Dimension   486 NMult   478 NNew      8
 Iteration     6 Dimension   490 NMult   486 NNew      4
 Convergence on energies, max DE= 1.67D-06.
 ***********************************************************************
 Excited states from <AA,BB:AA,BB> singles matrix:
 ***********************************************************************
 
 Ground to excited state transition densities written to RWF  633
 Ground to excited state transition electric dipole moments (Au):
       state          X           Y           Z        Dip. S.      Osc.
         1         3.6490      0.5088      0.0001     13.5741      1.3988
         2         0.2854      0.0624     -0.0000      0.0853      0.0114
         3         0.0001      0.0001     -0.2359      0.0557      0.0080
         4        -0.0001     -0.0000      0.0265      0.0007      0.0001
         5         0.2184     -0.2231      0.0004      0.0975      0.0149
         6         0.0008     -0.0003      0.0278      0.0008      0.0001
         7         0.0799      0.1690     -0.0001      0.0350      0.0055
         8         0.0002      0.0001     -0.0190      0.0004      0.0001
         9        -0.0000      0.0001     -0.0218      0.0005      0.0001
        10         0.0000     -0.0001      0.0077      0.0001      0.0000
        11         0.0003      0.0000     -0.0199      0.0004      0.0001
        12         0.0231     -0.0064     -0.0421      0.0024      0.0004
        13        -0.1150      0.0323     -0.0085      0.0143      0.0025
        14         0.0002      0.0001      0.0382      0.0015      0.0003
        15         0.0003     -0.0002     -0.0536      0.0029      0.0005
        16        -0.0005     -0.0001     -0.0184      0.0003      0.0001
        17         0.0002      0.0001      0.0023      0.0000      0.0000
        18         0.0006      0.0004     -0.0730      0.0053      0.0010
        19        -0.8596     -0.9149     -0.0000      1.5758      0.3007
        20         0.0001     -0.0003     -0.1106      0.0122      0.0024
        21         0.0008      0.0005     -0.0688      0.0047      0.0009
        22        -0.3645      0.0674     -0.0002      0.1374      0.0268
        23         0.1961     -0.0188      0.0002      0.0388      0.0076
        24        -0.0001     -0.0001     -0.0771      0.0059      0.0012
        25         0.0001     -0.0003      0.0625      0.0039      0.0008
        26         0.0097     -0.2223     -0.0006      0.0495      0.0101
        27         0.0002      0.0003     -0.1958      0.0383      0.0078
        28         0.0006      0.0001     -0.1010      0.0102      0.0021
        29        -0.0755      0.4145     -0.0004      0.1775      0.0367
        30        -0.1921      0.3162      0.0004      0.1368      0.0285
        31         0.0001      0.0007     -0.0532      0.0028      0.0006
        32         0.0001      0.0003      0.0668      0.0045      0.0009
        33         0.0006     -0.0006      0.0165      0.0003      0.0001
        34        -0.0007      0.0017     -0.1470      0.0216      0.0047
        35        -0.0015      0.0025      0.1009      0.0102      0.0022
        36        -0.0008      0.0018      0.0732      0.0054      0.0012
        37        -0.1787      0.3445     -0.0004      0.1506      0.0330
        38        -0.3952      0.1913     -0.0005      0.1928      0.0425
        39        -0.0044      0.0016      0.0128      0.0002      0.0000
        40         0.0272     -0.0683      0.0003      0.0054      0.0012
        41        -0.0001      0.0003      0.0839      0.0070      0.0016
        42         0.0002      0.0003     -0.0197      0.0004      0.0001
        43        -0.0003      0.0007      0.1507      0.0227      0.0051
        44         0.0044     -0.0042      0.0279      0.0008      0.0002
        45         0.2913     -0.2693     -0.0005      0.1574      0.0355
        46        -0.0002     -0.0000      0.1433      0.0205      0.0047
        47        -0.1737      0.0863      0.0003      0.0376      0.0086
        48         0.0001      0.0003     -0.0031      0.0000      0.0000
        49        -0.0003      0.0007     -0.0278      0.0008      0.0002
        50         0.0003     -0.0000      0.0284      0.0008      0.0002
 Ground to excited state transition velocity dipole moments (Au):
       state          X           Y           Z        Dip. S.      Osc.
         1        -0.5611     -0.0788     -0.0000      0.3210      1.3845
         2        -0.0560     -0.0131     -0.0000      0.0033      0.0110
         3        -0.0000     -0.0000      0.0550      0.0030      0.0094
         4         0.0000      0.0000     -0.0055      0.0000      0.0001
         5        -0.0511      0.0507     -0.0001      0.0052      0.0151
         6        -0.0002      0.0001     -0.0028      0.0000      0.0000
         7        -0.0204     -0.0396      0.0000      0.0020      0.0056
         8        -0.0000     -0.0000      0.0048      0.0000      0.0001
         9         0.0000     -0.0000      0.0066      0.0000      0.0001
        10        -0.0000      0.0000     -0.0025      0.0000      0.0000
        11        -0.0001      0.0000      0.0059      0.0000      0.0001
        12        -0.0060      0.0016      0.0124      0.0002      0.0005
        13         0.0298     -0.0081      0.0025      0.0010      0.0024
        14        -0.0001     -0.0000     -0.0117      0.0001      0.0003
        15        -0.0001      0.0001      0.0155      0.0002      0.0006
        16         0.0002      0.0000      0.0079      0.0001      0.0001
        17        -0.0001     -0.0000     -0.0008      0.0000      0.0000
        18        -0.0002     -0.0001      0.0226      0.0005      0.0012
        19         0.2439      0.2614      0.0000      0.1279      0.2978
        20        -0.0000      0.0001      0.0327      0.0011      0.0025
        21        -0.0002     -0.0001      0.0263      0.0007      0.0016
        22         0.1074     -0.0177      0.0001      0.0118      0.0270
        23        -0.0618      0.0052     -0.0001      0.0038      0.0087
        24         0.0000      0.0000      0.0221      0.0005      0.0011
        25        -0.0000      0.0001     -0.0183      0.0003      0.0007
        26        -0.0011      0.0657      0.0002      0.0043      0.0094
        27        -0.0001     -0.0001      0.0615      0.0038      0.0082
        28        -0.0002     -0.0000      0.0327      0.0011      0.0023
        29         0.0218     -0.1262      0.0001      0.0164      0.0352
        30         0.0602     -0.0979     -0.0001      0.0132      0.0282
        31        -0.0000     -0.0002      0.0155      0.0002      0.0005
        32        -0.0000     -0.0001     -0.0208      0.0004      0.0009
        33        -0.0002      0.0002     -0.0054      0.0000      0.0001
        34         0.0002     -0.0006      0.0440      0.0019      0.0040
        35         0.0005     -0.0008     -0.0277      0.0008      0.0016
        36         0.0003     -0.0006     -0.0225      0.0005      0.0010
        37         0.0576     -0.1105      0.0001      0.0155      0.0315
        38         0.1292     -0.0614      0.0002      0.0205      0.0412
        39         0.0015     -0.0005     -0.0068      0.0000      0.0001
        40        -0.0105      0.0232     -0.0001      0.0006      0.0013
        41         0.0000     -0.0001     -0.0215      0.0005      0.0009
        42        -0.0001     -0.0001      0.0061      0.0000      0.0001
        43         0.0001     -0.0002     -0.0463      0.0021      0.0042
        44        -0.0015      0.0014     -0.0004      0.0000      0.0000
        45        -0.0994      0.0911      0.0000      0.0182      0.0358
        46         0.0001      0.0000     -0.0504      0.0025      0.0049
        47         0.0582     -0.0301     -0.0001      0.0043      0.0083
        48        -0.0000     -0.0001      0.0043      0.0000      0.0000
        49         0.0001     -0.0002      0.0116      0.0001      0.0003
        50        -0.0001      0.0000     -0.0100      0.0001      0.0002
 Ground to excited state transition magnetic dipole moments (Au):
       state          X           Y           Z
         1         0.0001      0.0003     -0.3667
         2        -0.0001      0.0000     -0.2464
         3         0.2923     -0.1935     -0.0002
         4         0.0417      0.5545     -0.0003
         5         0.0001      0.0001     -0.9635
         6        -0.0302      0.0715     -0.0019
         7         0.0002     -0.0001     -0.0176
         8        -0.2363     -0.2899     -0.0002
         9        -0.0165      0.1398      0.0002
        10         0.0637      0.0535     -0.0004
        11         0.1604     -0.1242      0.0008
        12        -0.0871     -0.5547      0.0200
        13        -0.0172     -0.1110     -0.0962
        14        -0.2705      0.6080      0.0003
        15         0.1566     -0.4337     -0.0004
        16         0.2707      0.2528      0.0009
        17         1.3506     -0.1066     -0.0002
        18         0.1750      0.5356     -0.0002
        19         0.0008     -0.0000     -0.2234
        20         0.1820     -0.3694     -0.0002
        21         0.3513     -0.1587      0.0001
        22         0.0003      0.0003     -0.0749
        23        -0.0003     -0.0001      0.0257
        24        -0.2591     -0.2028     -0.0003
        25        -0.0867      0.2780      0.0006
        26        -0.0004      0.0004      0.1680
        27        -0.0488      0.1936      0.0007
        28        -0.1288      0.3316     -0.0026
        29        -0.0002      0.0007      0.9340
        30        -0.0000      0.0011     -0.9177
        31         0.0400     -0.5658     -0.0007
        32        -0.2057      0.7940      0.0010
        33        -0.1195      0.2877     -0.0005
        34        -0.2418     -0.2811     -0.0013
        35         0.0374     -0.1756     -0.0028
        36        -0.1643      0.0943     -0.0002
        37        -0.0009      0.0027     -0.4883
        38         0.0088     -0.0017      0.2558
        39        -0.8252      0.2571      0.0064
        40        -0.0036      0.0013     -0.7885
        41         0.8371      0.2414      0.0003
        42        -1.2720     -0.4957      0.0004
        43        -0.0258      0.4189      0.0003
        44         0.3622      0.3070      0.0153
        45        -0.0062     -0.0054      1.0063
        46         0.0845      0.3571      0.0004
        47         0.0005      0.0010     -0.4254
        48         0.0557      0.0936      0.0000
        49         0.3012      0.2216      0.0004
        50         0.1288      0.9200      0.0006
 Ground to excited state transition velocity quadrupole moments (Au):
       state          XX          YY          ZZ          XY          XZ          YZ
         1         0.0854     -0.0224     -0.0101      0.4021     -0.0001     -0.0001
         2         0.7156      0.0038     -0.0105      0.0284     -0.0000     -0.0000
         3         0.0004      0.0001      0.0000      0.0001      0.2133      0.2019
         4        -0.0017      0.0002     -0.0003     -0.0002     -0.5122     -0.0164
         5        -4.5914      0.0030     -0.0133     -0.9568      0.0001     -0.0000
         6        -0.0100      0.0001     -0.0000     -0.0019     -0.0667     -0.0482
         7         0.3198     -0.0359      0.0062      0.0077      0.0000      0.0001
         8        -0.0014     -0.0000     -0.0000     -0.0003      0.1054     -0.0597
         9         0.0004      0.0002      0.0000      0.0002     -0.0581     -0.1303
        10        -0.0001      0.0002     -0.0002     -0.0003      0.0297      0.0218
        11         0.0019      0.0001      0.0003      0.0007      0.1097      0.1103
        12         0.1180      0.0485     -0.0007      0.0164      0.3083     -0.0685
        13        -0.5806     -0.2400      0.0023     -0.0795      0.0616     -0.0138
        14         0.0007      0.0003      0.0000      0.0004     -0.3554     -0.1028
        15        -0.0032      0.0001     -0.0001     -0.0003      0.2003      0.1292
        16        -0.0024      0.0004     -0.0002      0.0003     -0.2957      0.1988
        17        -0.0003     -0.0000     -0.0000     -0.0002      0.1744      0.2381
        18         0.0009      0.0001     -0.0004      0.0003     -0.3864      0.1646
        19         0.0257      0.3748      0.0370     -0.3975      0.0003      0.0003
        20         0.0011      0.0001      0.0003     -0.0000      0.1734      0.0690
        21         0.0021     -0.0002      0.0002      0.0005      0.1812      0.2447
        22        -2.4956     -0.0115     -0.1747     -0.3069      0.0001     -0.0000
        23         0.1353     -0.0024     -0.0882     -0.0514     -0.0002      0.0001
        24         0.0002      0.0000      0.0001      0.0000      0.2348     -0.1112
        25         0.0021      0.0000      0.0001      0.0005     -0.2589     -0.1203
        26         0.1018      0.2116      0.1109      0.2854     -0.0001     -0.0008
        27        -0.0001      0.0001     -0.0001      0.0008     -0.1661     -0.0396
        28        -0.0018     -0.0002     -0.0005     -0.0028     -0.2229     -0.2361
        29         1.3385     -0.3505      0.0014      0.8300     -0.0007     -0.0004
        30         0.8149     -0.1709     -0.0067     -1.2465     -0.0011     -0.0004
        31         0.0029     -0.0005     -0.0001     -0.0013      0.5184      0.0856
        32         0.0006     -0.0001      0.0001      0.0010     -0.5673     -0.2567
        33        -0.0037      0.0007     -0.0001      0.0012     -0.1694     -0.0587
        34         0.0050     -0.0010      0.0001     -0.0042      0.3116     -0.0090
        35         0.0084     -0.0016     -0.0000     -0.0074      0.3582     -0.0666
        36         0.0041     -0.0011      0.0001     -0.0030     -0.0308     -0.0859
        37         1.5072     -0.2434      0.0285     -1.2374     -0.0036     -0.0005
        38        -1.3496     -0.0914     -0.0423     -0.3251     -0.0017      0.0031
        39        -0.0119     -0.0016     -0.0006      0.0011     -0.0001     -0.2938
        40        -1.8091      0.2795      0.0147     -0.7514     -0.0006     -0.0015
        41        -0.0010     -0.0002     -0.0000     -0.0003     -0.0220      0.5601
        42         0.0014     -0.0002      0.0000     -0.0003      0.0415     -0.2445
        43         0.0031     -0.0010      0.0002     -0.0004     -0.1283     -0.0213
        44        -0.0157      0.0017     -0.0005      0.0072     -0.0623      0.1746
        45        -1.0349      0.1015     -0.0324      0.4829      0.0015     -0.0031
        46         0.0021     -0.0007      0.0002      0.0002     -0.2969      0.0599
        47         0.3433      0.1680      0.0536     -0.7654     -0.0006     -0.0004
        48         0.0016     -0.0002      0.0006     -0.0002     -0.1121      0.0780
        49        -0.0009     -0.0001     -0.0004     -0.0000     -0.1268     -0.0571
        50         0.0010      0.0003     -0.0002      0.0012     -0.5967      0.0838
 <0|del|b> * <b|rxdel|0> + <0|del|b> * <b|delr+rdel|0>
 Rotatory Strengths (R) in cgs (10**-40 erg-esu-cm/Gauss)
       state          XX          YY          ZZ    R(velocity)    E-M Angle
         1        -0.0832      0.0753     -0.2477     -0.0852       90.00
         2        -0.0008      0.0104      0.0049      0.0048       90.00
         3        -0.0017     -0.0338     -0.0025     -0.0127       90.00
         4         0.0279      0.0022      0.0030      0.0110       90.00
         5         0.2524     -0.0034      0.0108      0.0866       90.00
         6         0.0315      0.0202     -0.0042      0.0158       90.00
         7         0.0084     -0.0073      0.0014      0.0009       90.00
         8         0.0103      0.0184      0.0170      0.0153       90.00
         9        -0.0043     -0.0006     -0.0028     -0.0026       90.00
        10         0.0028     -0.0000      0.0015      0.0014       90.00
        11         0.0113     -0.0313     -0.0060     -0.0087       90.00
        12        -1.2187      1.2966     -0.3717     -0.0979       90.81
        13         1.2638     -1.2847      0.3936      0.1242       88.24
        14        -0.0596      0.0301      0.0000     -0.0098       90.00
        15        -0.0601     -0.0315     -0.0197     -0.0371       90.00
        16         0.0358      0.0969      0.0122      0.0483       90.00
        17         0.0105     -0.1236     -0.0890     -0.0674       90.00
        18        -0.1425     -0.0834     -0.0260     -0.0840       90.45
        19        -0.1213      0.3227      0.2380      0.1465       89.87
        20        -0.0708     -0.0174     -0.0265     -0.0382       90.00
        21         0.0776     -0.1779     -0.0335     -0.0446       90.00
        22        -0.0268      0.0454      0.0250      0.0145       90.00
        23         0.0021      0.0096      0.0274      0.0131       90.00
        24        -0.0181     -0.0171     -0.0025     -0.0126       90.00
        25         0.0389      0.0040      0.0014      0.0148       90.00
        26         0.1294     -0.0238      0.0218      0.0425       90.00
        27         0.0717     -0.0040     -0.0017      0.0220       90.00
        28        -0.2273      0.0760     -0.0255     -0.0590       90.00
        29         0.0767      0.0022      0.0033      0.0274       90.00
        30         0.0382     -0.0698      0.0259     -0.0019       90.00
        31         0.2210      0.0067      0.0122      0.0799       89.31
        32        -0.1724      0.0107     -0.0220     -0.0612       90.00
        33         0.0897      0.0483      0.0372      0.0584       90.00
        34         0.1041      0.0772     -0.0751      0.0354       90.00
        35         0.7608     -0.1522     -0.1028      0.1686       87.30
        36        -0.0004     -0.1364     -0.0605     -0.0658       90.00
        37        -0.9378     -0.0099      0.0829     -0.2883       90.38
        38        -0.0134      1.7594      0.9960      0.9140       87.99
        39        -0.2005     -1.7859     -0.9753     -0.9872      103.23
        40         0.2237      0.0615      0.0404      0.1085       89.56
        41        -0.0294      0.0458     -0.0123      0.0014       90.00
        42         0.0599      0.1119      0.1230      0.0983       89.04
        43        -0.1176     -0.0370     -0.0643     -0.0730       90.31
        44         0.5458     -0.8542      0.0696     -0.0796       96.52
        45        -0.6307      0.9823     -0.0421      0.1032       89.94
        46        -0.0156     -0.0032      0.0025     -0.0054       90.00
        47         0.0901     -0.0346      0.0360      0.0305       90.00
        48        -0.0241     -0.0034      0.0028     -0.0082       90.00
        49        -0.0783      0.0297      0.0132     -0.0118       90.00
        50        -0.0102     -0.0202     -0.0039     -0.0114       90.00
 1/2[<0|r|b>*<b|rxdel|0> + (<0|rxdel|b>*<b|r|0>)*]
 Rotatory Strengths (R) in cgs (10**-40 erg-esu-cm/Gauss)
       state          XX          YY          ZZ     R(length)
         1        -0.1548     -0.1174      0.0135     -0.0862
         2         0.0144     -0.0000     -0.0013      0.0043
         3        -0.0194      0.0108     -0.0327     -0.0138
         4         0.0023      0.0191      0.0057      0.0091
         5        -0.0090      0.0160      0.2405      0.0825
         6         0.0162      0.0151      0.0367      0.0227
         7        -0.0088      0.0131     -0.0008      0.0012
         8         0.0279      0.0221     -0.0027      0.0158
         9        -0.0003     -0.0112      0.0027     -0.0030
        10        -0.0004      0.0025      0.0022      0.0014
        11        -0.0377      0.0008      0.0110     -0.0086
        12         1.4250     -2.4960      0.5952     -0.1586
        13        -1.4010      2.5336     -0.5754      0.1857
        14         0.0411     -0.0539     -0.0081     -0.0070
        15        -0.0352     -0.0574     -0.0144     -0.0357
        16         0.0942      0.0264      0.0117      0.0441
        17        -0.2153      0.0076      0.0003     -0.0692
        18        -0.0741     -0.1666     -0.0079     -0.0829
        19         0.4734     -0.0218     -0.0065      0.1484
        20        -0.0133     -0.0849     -0.0171     -0.0384
        21        -0.1975      0.0543      0.0067     -0.0455
        22         0.0651     -0.0143     -0.0080      0.0143
        23         0.0414     -0.0019     -0.0027      0.0123
        24        -0.0111     -0.0105     -0.0185     -0.0134
        25         0.0038      0.0655     -0.0263      0.0143
        26         0.0024      0.0558      0.0689      0.0424
        27         0.0077     -0.0344      0.0903      0.0212
        28         0.0502     -0.0278     -0.1890     -0.0555
        29        -0.0094     -0.1972      0.2702      0.0212
        30        -0.0016     -0.2413      0.2384     -0.0015
        31        -0.0019      0.2718     -0.0270      0.0810
        32         0.0079     -0.1480     -0.0472     -0.0625
        33         0.0513      0.1153      0.0063      0.0577
        34        -0.1192      0.3459     -0.1363      0.0302
        35         0.0389      0.3068      0.1976      0.1811
        36        -0.0938     -0.1180      0.0089     -0.0676
        37        -0.1180     -0.6589     -0.1521     -0.3096
        38         2.4460      0.2266      0.0914      0.9213
        39        -2.5899     -0.2979     -0.0579     -0.9819
        40         0.0701      0.0618      0.1625      0.0982
        41         0.0747     -0.0562     -0.0178      0.0002
        42         0.1803      0.1062      0.0053      0.0973
        43        -0.0046     -0.1945     -0.0339     -0.0776
        44        -1.1357      0.9219     -0.3020     -0.1719
        45         1.2872     -1.0288      0.3498      0.2027
        46         0.0100      0.0126     -0.0387     -0.0054
        47         0.0568     -0.0624      0.0883      0.0276
        48        -0.0023     -0.0208      0.0001     -0.0077
        49         0.0553     -0.1024      0.0082     -0.0130
        50        -0.0313      0.0047     -0.0119     -0.0128
  1/2[<0|del|b>*<b|r|0> + (<0|r|b>*<b|del|0>)*] (Au)
       state          X           Y           Z        Dip. S.   Osc.(frdel)
         1        -2.0474     -0.0401     -0.0000      2.0875      1.3916
         2        -0.0160     -0.0008      0.0000      0.0168      0.0112
         3        -0.0000     -0.0000     -0.0130      0.0130      0.0086
         4        -0.0000     -0.0000     -0.0001      0.0001      0.0001
         5        -0.0112     -0.0113     -0.0000      0.0225      0.0150
         6        -0.0000     -0.0000     -0.0001      0.0001      0.0001
         7        -0.0016     -0.0067     -0.0000      0.0083      0.0056
         8        -0.0000     -0.0000     -0.0001      0.0001      0.0001
         9        -0.0000     -0.0000     -0.0001      0.0001      0.0001
        10        -0.0000     -0.0000     -0.0000      0.0000      0.0000
        11        -0.0000      0.0000     -0.0001      0.0001      0.0001
        12        -0.0001     -0.0000     -0.0005      0.0007      0.0004
        13        -0.0034     -0.0003     -0.0000      0.0037      0.0025
        14        -0.0000     -0.0000     -0.0004      0.0004      0.0003
        15        -0.0000     -0.0000     -0.0008      0.0008      0.0006
        16        -0.0000     -0.0000     -0.0001      0.0001      0.0001
        17        -0.0000     -0.0000     -0.0000      0.0000      0.0000
        18        -0.0000     -0.0000     -0.0017      0.0017      0.0011
        19        -0.2097     -0.2392     -0.0000      0.4489      0.2992
        20        -0.0000     -0.0000     -0.0036      0.0036      0.0024
        21        -0.0000     -0.0000     -0.0018      0.0018      0.0012
        22        -0.0391     -0.0012     -0.0000      0.0403      0.0269
        23        -0.0121     -0.0001     -0.0000      0.0122      0.0081
        24        -0.0000     -0.0000     -0.0017      0.0017      0.0011
        25        -0.0000     -0.0000     -0.0011      0.0011      0.0008
        26        -0.0000     -0.0146     -0.0000      0.0146      0.0097
        27        -0.0000     -0.0000     -0.0120      0.0120      0.0080
        28        -0.0000     -0.0000     -0.0033      0.0033      0.0022
        29        -0.0016     -0.0523     -0.0000      0.0539      0.0360
        30        -0.0116     -0.0309     -0.0000      0.0425      0.0283
        31        -0.0000     -0.0000     -0.0008      0.0008      0.0005
        32        -0.0000     -0.0000     -0.0014      0.0014      0.0009
        33        -0.0000     -0.0000     -0.0001      0.0001      0.0001
        34        -0.0000     -0.0000     -0.0065      0.0065      0.0043
        35        -0.0000     -0.0000     -0.0028      0.0028      0.0019
        36        -0.0000     -0.0000     -0.0016      0.0016      0.0011
        37        -0.0103     -0.0381     -0.0000      0.0483      0.0322
        38        -0.0510     -0.0117     -0.0000      0.0628      0.0419
        39        -0.0000     -0.0000     -0.0001      0.0001      0.0001
        40        -0.0003     -0.0016     -0.0000      0.0019      0.0012
        41        -0.0000     -0.0000     -0.0018      0.0018      0.0012
        42        -0.0000     -0.0000     -0.0001      0.0001      0.0001
        43        -0.0000     -0.0000     -0.0070      0.0070      0.0047
        44        -0.0000     -0.0000     -0.0000      0.0000      0.0000
        45        -0.0289     -0.0245     -0.0000      0.0535      0.0356
        46        -0.0000     -0.0000     -0.0072      0.0072      0.0048
        47        -0.0101     -0.0026     -0.0000      0.0127      0.0085
        48        -0.0000     -0.0000     -0.0000      0.0000      0.0000
        49        -0.0000     -0.0000     -0.0003      0.0003      0.0002
        50        -0.0000     -0.0000     -0.0003      0.0003      0.0002

 Excitation energies and oscillator strengths:
 
 Excited State   1:      Singlet-A      4.2062 eV  294.77 nm  f=1.3988  <S**2>=0.000
      38 -> 39         0.70711
 This state for optimization and/or second-order correction.
 Total Energy, E(TD-HF/TD-DFT) =  -390.673916908    
 Copying the excited state density for this state as the 1-particle RhoCI density.
 
 Excited State   2:      Singlet-A      5.4359 eV  228.08 nm  f=0.0114  <S**2>=0.000
      37 -> 39         0.56803
      38 -> 40         0.41659
 
 Excited State   3:      Singlet-A      5.8337 eV  212.53 nm  f=0.0080  <S**2>=0.000
      38 -> 41         0.70182
 
 Excited State   4:      Singlet-A      6.0661 eV  204.39 nm  f=0.0001  <S**2>=0.000
      38 -> 42         0.69953
 
 Excited State   5:      Singlet-A      6.2444 eV  198.55 nm  f=0.0149  <S**2>=0.000
      37 -> 39        -0.40768
      38 -> 40         0.56159
 
 Excited State   6:      Singlet-A      6.2809 eV  197.40 nm  f=0.0001  <S**2>=0.000
      38 -> 43         0.68801
      38 -> 45        -0.13974
 
 Excited State   7:      Singlet-A      6.4690 eV  191.66 nm  f=0.0055  <S**2>=0.000
      36 -> 39        -0.30142
      38 -> 44         0.63616
 
 Excited State   8:      Singlet-A      6.6090 eV  187.60 nm  f=0.0001  <S**2>=0.000
      35 -> 39         0.69839
 
 Excited State   9:      Singlet-A      6.8267 eV  181.62 nm  f=0.0001  <S**2>=0.000
      38 -> 43         0.13418
      38 -> 45         0.68339
 
 Excited State  10:      Singlet-A      6.9994 eV  177.14 nm  f=0.0000  <S**2>=0.000
      34 -> 39         0.69100
 
 Excited State  11:      Singlet-A      7.0966 eV  174.71 nm  f=0.0001  <S**2>=0.000
      38 -> 46         0.65119
      38 -> 47         0.23434
 
 Excited State  12:      Singlet-A      7.2516 eV  170.97 nm  f=0.0004  <S**2>=0.000
      36 -> 39        -0.12235
      38 -> 46        -0.23383
      38 -> 47         0.63706
 
 Excited State  13:      Singlet-A      7.2518 eV  170.97 nm  f=0.0025  <S**2>=0.000
      36 -> 39         0.60607
      37 -> 40         0.13260
      38 -> 44         0.28458
      38 -> 47         0.12888
 
 Excited State  14:      Singlet-A      7.3943 eV  167.68 nm  f=0.0003  <S**2>=0.000
      32 -> 39         0.21038
      33 -> 39         0.65471
 
 Excited State  15:      Singlet-A      7.4821 eV  165.71 nm  f=0.0005  <S**2>=0.000
      38 -> 48         0.67424
      38 -> 49         0.15884
 
 Excited State  16:      Singlet-A      7.6279 eV  162.54 nm  f=0.0001  <S**2>=0.000
      38 -> 48        -0.16384
      38 -> 49         0.66369
 
 Excited State  17:      Singlet-A      7.6317 eV  162.46 nm  f=0.0000  <S**2>=0.000
      30 -> 39        -0.21470
      32 -> 39         0.60849
      33 -> 39        -0.22433
 
 Excited State  18:      Singlet-A      7.6793 eV  161.45 nm  f=0.0010  <S**2>=0.000
      37 -> 41         0.66364
      37 -> 42         0.16959
      38 -> 49        -0.10482
 
 Excited State  19:      Singlet-A      7.7892 eV  159.17 nm  f=0.3007  <S**2>=0.000
      36 -> 39        -0.10445
      37 -> 40         0.68064
 
 Excited State  20:      Singlet-A      7.9195 eV  156.56 nm  f=0.0024  <S**2>=0.000
      31 -> 39         0.67233
      32 -> 39        -0.12336
 
 Excited State  21:      Singlet-A      7.9314 eV  156.32 nm  f=0.0009  <S**2>=0.000
      37 -> 41        -0.17972
      37 -> 42         0.66544
 
 Excited State  22:      Singlet-A      7.9601 eV  155.76 nm  f=0.0268  <S**2>=0.000
      38 -> 50         0.66316
      38 -> 51         0.21069
 
 Excited State  23:      Singlet-A      8.0204 eV  154.59 nm  f=0.0076  <S**2>=0.000
      38 -> 50        -0.21390
      38 -> 51         0.66219
 
 Excited State  24:      Singlet-A      8.0434 eV  154.14 nm  f=0.0012  <S**2>=0.000
      30 -> 39         0.65556
      32 -> 39         0.21687
 
 Excited State  25:      Singlet-A      8.1504 eV  152.12 nm  f=0.0008  <S**2>=0.000
      37 -> 43         0.68085
      37 -> 45        -0.11185
 
 Excited State  26:      Singlet-A      8.3029 eV  149.33 nm  f=0.0101  <S**2>=0.000
      37 -> 44         0.23610
      38 -> 52         0.65209
 
 Excited State  27:      Singlet-A      8.3588 eV  148.33 nm  f=0.0078  <S**2>=0.000
      28 -> 39         0.68160
 
 Excited State  28:      Singlet-A      8.3797 eV  147.96 nm  f=0.0021  <S**2>=0.000
      38 -> 53         0.68199
 
 Excited State  29:      Singlet-A      8.4424 eV  146.86 nm  f=0.0367  <S**2>=0.000
      29 -> 39         0.15055
      37 -> 44         0.64025
      38 -> 52        -0.23508
 
 Excited State  30:      Singlet-A      8.4879 eV  146.07 nm  f=0.0285  <S**2>=0.000
      29 -> 39         0.68422
      37 -> 44        -0.14352
 
 Excited State  31:      Singlet-A      8.4951 eV  145.95 nm  f=0.0006  <S**2>=0.000
      38 -> 54         0.68757
 
 Excited State  32:      Singlet-A      8.6643 eV  143.10 nm  f=0.0009  <S**2>=0.000
      37 -> 43         0.11258
      37 -> 45         0.67273
 
 Excited State  33:      Singlet-A      8.7883 eV  141.08 nm  f=0.0001  <S**2>=0.000
      26 -> 39         0.10018
      34 -> 44         0.10927
      35 -> 40         0.58958
      38 -> 56        -0.30397
 
 Excited State  34:      Singlet-A      8.8099 eV  140.73 nm  f=0.0047  <S**2>=0.000
      35 -> 40         0.28347
      37 -> 45         0.10601
      37 -> 46        -0.12722
      38 -> 56         0.58136
      38 -> 57        -0.10604
 
 Excited State  35:      Singlet-A      8.9064 eV  139.21 nm  f=0.0022  <S**2>=0.000
      35 -> 40         0.12820
      38 -> 57         0.66039
 
 Excited State  36:      Singlet-A      8.9390 eV  138.70 nm  f=0.0012  <S**2>=0.000
      36 -> 43         0.10640
      37 -> 46         0.57050
      37 -> 47         0.28752
      38 -> 56         0.13324
      38 -> 57        -0.13758
 
 Excited State  37:      Singlet-A      8.9515 eV  138.51 nm  f=0.0330  <S**2>=0.000
      27 -> 39        -0.17418
      38 -> 55         0.66270
 
 Excited State  38:      Singlet-A      8.9970 eV  137.81 nm  f=0.0425  <S**2>=0.000
      25 -> 39        -0.10419
      27 -> 39         0.66573
      38 -> 55         0.17660
 
 Excited State  39:      Singlet-A      9.0077 eV  137.64 nm  f=0.0000  <S**2>=0.000
      26 -> 39         0.64926
      32 -> 40        -0.10955
 
 Excited State  40:      Singlet-A      9.0331 eV  137.25 nm  f=0.0012  <S**2>=0.000
      36 -> 40         0.68093
 
 Excited State  41:      Singlet-A      9.0933 eV  136.35 nm  f=0.0016  <S**2>=0.000
      34 -> 40        -0.10493
      36 -> 41         0.19506
      37 -> 46        -0.26087
      37 -> 47         0.57207
      37 -> 49         0.10406
 
 Excited State  42:      Singlet-A      9.1349 eV  135.73 nm  f=0.0001  <S**2>=0.000
      34 -> 40         0.60400
      35 -> 44         0.25687
      37 -> 47         0.10274
 
 Excited State  43:      Singlet-A      9.1869 eV  134.96 nm  f=0.0051  <S**2>=0.000
      37 -> 48        -0.14590
      38 -> 58         0.64766
      38 -> 59        -0.11740
 
 Excited State  44:      Singlet-A      9.2060 eV  134.68 nm  f=0.0002  <S**2>=0.000
      36 -> 41         0.61950
      36 -> 43        -0.10278
      37 -> 46         0.18687
      37 -> 47        -0.17335
      38 -> 58         0.10646
 
 Excited State  45:      Singlet-A      9.2146 eV  134.55 nm  f=0.0355  <S**2>=0.000
      34 -> 42        -0.17986
      35 -> 41         0.66365
 
 Excited State  46:      Singlet-A      9.3387 eV  132.76 nm  f=0.0047  <S**2>=0.000
      37 -> 48         0.45738
      38 -> 58         0.19299
      38 -> 59         0.46380
 
 Excited State  47:      Singlet-A      9.3787 eV  132.20 nm  f=0.0086  <S**2>=0.000
      34 -> 41        -0.41529
      35 -> 42         0.54224
 
 Excited State  48:      Singlet-A      9.4035 eV  131.85 nm  f=0.0000  <S**2>=0.000
      36 -> 42        -0.16772
      37 -> 48        -0.45174
      37 -> 49        -0.11147
      38 -> 59         0.46659
 
 Excited State  49:      Singlet-A      9.4418 eV  131.31 nm  f=0.0002  <S**2>=0.000
      36 -> 42         0.12718
      36 -> 43        -0.17786
      37 -> 46         0.11281
      37 -> 48        -0.13589
      37 -> 49         0.60485
 
 Excited State  50:      Singlet-A      9.5132 eV  130.33 nm  f=0.0002  <S**2>=0.000
      36 -> 42         0.63998
      37 -> 48        -0.12168
      37 -> 49        -0.19504
 SavETr:  write IOETrn=   770 NScale= 10 NData=  16 NLR=1 NState=   50 LETran=     910.

 **********************************************************************

            Population analysis using the SCF Density.

 **********************************************************************

 Orbital symmetries:
       Occupied  (A) (A) (A) (A) (A) (A) (A) (A) (A) (A) (A) (A)
                 (A) (A) (A) (A) (A) (A) (A) (A) (A) (A) (A) (A)
                 (A) (A) (A) (A) (A) (A) (A) (A) (A) (A) (A) (A)
                 (A) (A)
       Virtual   (A) (A) (A) (A) (A) (A) (A) (A) (A) (A) (A) (A)
                 (A) (A) (A) (A) (A) (A) (A) (A) (A) (A) (A) (A)
                 (A) (A) (A) (A) (A) (A) (A) (A) (A) (A) (A) (A)
                 (A) (A) (A) (A) (A) (A) (A) (A) (A) (A) (A) (A)
                 (A) (A) (A) (A) (A) (A) (A) (A) (A) (A) (A) (A)
                 (A) (A) (A) (A) (A) (A) (A) (A) (A) (A) (A) (A)
                 (A) (A) (A) (A) (A) (A) (A) (A) (A) (A) (A) (A)
                 (A) (A) (A) (A) (A) (A) (A) (A) (A) (A) (A) (A)
                 (A) (A) (A) (A) (A) (A) (A) (A) (A) (A) (A) (A)
                 (A) (A) (A) (A) (A) (A) (A) (A) (A) (A) (A) (A)
                 (A) (A) (A) (A) (A) (A) (A) (A) (A) (A) (A) (A)
                 (A) (A) (A) (A) (A) (A) (A) (A) (A) (A) (A) (A)
                 (A) (A) (A) (A) (A) (A) (A) (A) (A) (A) (A) (A)
                 (A) (A) (A) (A) (A) (A) (A) (A) (A) (A) (A) (A)
                 (A) (A) (A) (A) (A) (A) (A) (A) (A) (A) (A) (A)
                 (A) (A) (A) (A) (A) (A) (A) (A) (A) (A) (A) (A)
                 (A) (A) (A) (A) (A) (A) (A) (A) (A) (A) (A) (A)
                 (A) (A) (A) (A) (A) (A) (A) (A) (A) (A) (A) (A)
                 (A) (A) (A) (A) (A) (A) (A) (A) (A) (A) (A) (A)
                 (A) (A) (A) (A) (A) (A) (A) (A) (A) (A) (A) (A)
                 (A) (A) (A) (A) (A) (A) (A) (A) (A) (A) (A) (A)
                 (A) (A) (A) (A) (A) (A) (A) (A) (A) (A) (A) (A)
                 (A) (A) (A) (A) (A) (A) (A) (A) (A) (A) (A) (A)
                 (A) (A) (A) (A) (A) (A) (A) (A) (A) (A) (A) (A)
                 (A) (A) (A) (A) (A) (A) (A) (A) (A) (A) (A) (A)
                 (A) (A) (A) (A) (A) (A) (A) (A) (A) (A) (A) (A)
                 (A) (A) (A) (A) (A) (A) (A) (A) (A) (A) (A) (A)
                 (A) (A) (A) (A) (A) (A) (A) (A) (A) (A) (A) (A)
                 (A) (A) (A) (A) (A) (A) (A) (A) (A) (A) (A) (A)
                 (A) (A) (A) (A) (A) (A) (A) (A) (A) (A) (A) (A)
                 (A) (A) (A) (A) (A) (A) (A) (A)
 The electronic state is 1-A.
 Alpha  occ. eigenvalues --  -10.17986 -10.17698 -10.16816 -10.16700 -10.16624
 Alpha  occ. eigenvalues --  -10.16119 -10.15972 -10.15857 -10.15794 -10.15723
 Alpha  occ. eigenvalues --   -0.82614  -0.80695  -0.75901  -0.71794  -0.68656
 Alpha  occ. eigenvalues --   -0.67886  -0.64912  -0.56863  -0.52613  -0.50770
 Alpha  occ. eigenvalues --   -0.47508  -0.45550  -0.43657  -0.42694  -0.41723
 Alpha  occ. eigenvalues --   -0.41115  -0.39732  -0.37947  -0.37849  -0.37150
 Alpha  occ. eigenvalues --   -0.36807  -0.36045  -0.35332  -0.33646  -0.32427
 Alpha  occ. eigenvalues --   -0.32205  -0.26500  -0.19800
 Alpha virt. eigenvalues --   -0.03996   0.03846   0.04392   0.05145   0.06433
 Alpha virt. eigenvalues --    0.07263   0.08156   0.09023   0.09677   0.10624
 Alpha virt. eigenvalues --    0.11243   0.11990   0.12135   0.13404   0.14029
 Alpha virt. eigenvalues --    0.14369   0.15638   0.15658   0.15903   0.16672
 Alpha virt. eigenvalues --    0.17758   0.18452   0.18820   0.19243   0.20032
 Alpha virt. eigenvalues --    0.20988   0.22075   0.22612   0.23643   0.24487
 Alpha virt. eigenvalues --    0.24757   0.25464   0.26801   0.29321   0.29400
 Alpha virt. eigenvalues --    0.30294   0.30705   0.30790   0.31332   0.33607
 Alpha virt. eigenvalues --    0.34177   0.35481   0.35909   0.37194   0.37903
 Alpha virt. eigenvalues --    0.38219   0.38997   0.39540   0.40017   0.41845
 Alpha virt. eigenvalues --    0.42515   0.42831   0.43191   0.43971   0.44509
 Alpha virt. eigenvalues --    0.45391   0.46428   0.46786   0.47368   0.47670
 Alpha virt. eigenvalues --    0.48588   0.48886   0.48958   0.49410   0.50495
 Alpha virt. eigenvalues --    0.51351   0.51936   0.53377   0.54802   0.57036
 Alpha virt. eigenvalues --    0.58892   0.59256   0.60081   0.60268   0.61258
 Alpha virt. eigenvalues --    0.63139   0.64136   0.64711   0.64821   0.66508
 Alpha virt. eigenvalues --    0.67487   0.67884   0.68423   0.69605   0.71077
 Alpha virt. eigenvalues --    0.72781   0.74463   0.75016   0.76168   0.79794
 Alpha virt. eigenvalues --    0.79825   0.83796   0.84172   0.85813   0.88557
 Alpha virt. eigenvalues --    0.88722   0.92544   0.93763   0.93929   0.95980
 Alpha virt. eigenvalues --    0.96040   0.98365   0.98408   0.98961   0.99680
 Alpha virt. eigenvalues --    1.01221   1.04562   1.04699   1.06553   1.06724
 Alpha virt. eigenvalues --    1.08783   1.10089   1.11780   1.12838   1.15211
 Alpha virt. eigenvalues --    1.15313   1.17393   1.19141   1.21378   1.22225
 Alpha virt. eigenvalues --    1.22950   1.24268   1.25685   1.27524   1.31683
 Alpha virt. eigenvalues --    1.33430   1.34223   1.35024   1.35699   1.40832
 Alpha virt. eigenvalues --    1.42968   1.43070   1.46381   1.47630   1.48707
 Alpha virt. eigenvalues --    1.50009   1.51276   1.51352   1.52622   1.52639
 Alpha virt. eigenvalues --    1.53662   1.54303   1.54769   1.55213   1.56875
 Alpha virt. eigenvalues --    1.57420   1.57481   1.58256   1.58450   1.58663
 Alpha virt. eigenvalues --    1.59036   1.59727   1.62204   1.62543   1.64840
 Alpha virt. eigenvalues --    1.65631   1.66944   1.70093   1.73812   1.74027
 Alpha virt. eigenvalues --    1.74895   1.76066   1.78616   1.80982   1.82192
 Alpha virt. eigenvalues --    1.85858   1.89621   1.90775   1.91478   1.92573
 Alpha virt. eigenvalues --    1.94082   1.97046   1.97348   1.98728   2.00450
 Alpha virt. eigenvalues --    2.01197   2.01257   2.02784   2.05932   2.06945
 Alpha virt. eigenvalues --    2.08074   2.10838   2.12623   2.15051   2.16989
 Alpha virt. eigenvalues --    2.18561   2.18885   2.21615   2.21993   2.24848
 Alpha virt. eigenvalues --    2.26927   2.27411   2.29237   2.31932   2.33409
 Alpha virt. eigenvalues --    2.33909   2.35207   2.35413   2.36439   2.37216
 Alpha virt. eigenvalues --    2.37455   2.39611   2.40758   2.43745   2.44112
 Alpha virt. eigenvalues --    2.46962   2.48930   2.49118   2.51482   2.51994
 Alpha virt. eigenvalues --    2.52836   2.53582   2.54971   2.56280   2.57174
 Alpha virt. eigenvalues --    2.58183   2.58590   2.59331   2.60069   2.61117
 Alpha virt. eigenvalues --    2.63795   2.63806   2.69506   2.70251   2.71605
 Alpha virt. eigenvalues --    2.72322   2.74250   2.75025   2.76079   2.78574
 Alpha virt. eigenvalues --    2.79059   2.80051   2.81979   2.84150   2.86066
 Alpha virt. eigenvalues --    2.87797   2.88179   2.88228   2.90530   2.91340
 Alpha virt. eigenvalues --    2.94143   2.95222   2.95372   2.96824   2.99469
 Alpha virt. eigenvalues --    2.99845   3.01142   3.01706   3.03624   3.04231
 Alpha virt. eigenvalues --    3.04603   3.06452   3.09189   3.10743   3.11049
 Alpha virt. eigenvalues --    3.11379   3.12778   3.13381   3.13808   3.15496
 Alpha virt. eigenvalues --    3.16785   3.17190   3.17703   3.18550   3.20910
 Alpha virt. eigenvalues --    3.22095   3.23879   3.23983   3.26129   3.26668
 Alpha virt. eigenvalues --    3.29200   3.29354   3.29816   3.31224   3.32286
 Alpha virt. eigenvalues --    3.32808   3.33217   3.34301   3.34599   3.35188
 Alpha virt. eigenvalues --    3.35420   3.36484   3.38238   3.39798   3.43884
 Alpha virt. eigenvalues --    3.44105   3.45381   3.46264   3.49696   3.50547
 Alpha virt. eigenvalues --    3.54163   3.55104   3.55658   3.56968   3.59640
 Alpha virt. eigenvalues --    3.60124   3.64510   3.66582   3.66610   3.67994
 Alpha virt. eigenvalues --    3.68503   3.72339   3.74122   3.77075   3.78015
 Alpha virt. eigenvalues --    3.81382   3.82068   3.82501   3.86931   3.87596
 Alpha virt. eigenvalues --    3.90820   3.92564   3.95963   3.98754   3.98990
 Alpha virt. eigenvalues --    3.99027   4.02444   4.04055   4.05451   4.07829
 Alpha virt. eigenvalues --    4.12521   4.19113   4.23325   4.23816   4.24340
 Alpha virt. eigenvalues --    4.28056   4.30272   4.32777   4.36065   4.37110
 Alpha virt. eigenvalues --    4.38099   4.38449   4.39979   4.41004   4.44755
 Alpha virt. eigenvalues --    4.47029   4.48246   4.50844   4.54271   4.56694
 Alpha virt. eigenvalues --    4.62559   4.62881   4.65472   4.69791   4.71640
 Alpha virt. eigenvalues --    4.75968   4.87507   4.88210   4.92418   4.95134
 Alpha virt. eigenvalues --    5.02962   5.07015   5.10485   5.17472   5.25400
 Alpha virt. eigenvalues --    5.28511   5.48583   5.54894  22.22355  22.30206
 Alpha virt. eigenvalues --   22.36763  22.41565  22.46625  22.48751  22.64842
 Alpha virt. eigenvalues --   22.77814  23.01298  23.09285
          Condensed to atoms (all electrons):
               1          2          3          4          5          6
     1  C    4.971858   0.300453  -0.062099   0.012722  -0.001225   0.000072
     2  C    0.300453   5.060057   0.645408  -0.059647  -0.005157  -0.001087
     3  C   -0.062099   0.645408   5.084318   0.351244  -0.065307   0.005327
     4  C    0.012722  -0.059647   0.351244   4.983559   0.570178  -0.039731
     5  C   -0.001225  -0.005157  -0.065307   0.570178   5.105498   0.339749
     6  C    0.000072  -0.001087   0.005327  -0.039731   0.339749   5.066669
     7  C   -0.000000   0.000011  -0.001100  -0.000799  -0.110034   0.614531
     8  C    0.000000  -0.000001   0.000060  -0.000981   0.011855  -0.014207
     9  C   -0.061398   0.280836  -0.053848  -0.014777   0.005431  -0.000195
    10  C   -0.000009   0.000128  -0.001990   0.009179  -0.076492   0.263179
    11  H    0.402923  -0.040326  -0.005109  -0.000568   0.000056  -0.000002
    12  H    0.402893  -0.040320  -0.005114  -0.000569   0.000056  -0.000002
    13  H    0.417598  -0.062818   0.008004   0.001010  -0.000083   0.000012
    14  H   -0.013550  -0.037148   0.413525  -0.054560   0.011323  -0.000699
    15  H   -0.000128   0.001336  -0.048464   0.400384  -0.011456  -0.016859
    16  H   -0.000161   0.001402  -0.002176  -0.052107   0.425921  -0.058347
    17  H   -0.000000   0.000019  -0.000041  -0.000026  -0.002518  -0.060842
    18  H    0.000000   0.000000   0.000006  -0.000118   0.002072   0.018343
    19  H   -0.000000  -0.000000  -0.000003   0.000063  -0.000960  -0.004901
    20  H   -0.000000  -0.000000  -0.000003   0.000063  -0.000961  -0.004828
    21  H    0.006851  -0.048148  -0.007052  -0.002177   0.002040  -0.000168
    22  H   -0.002083  -0.043421  -0.000836  -0.000152  -0.000185   0.000004
    23  H   -0.002094  -0.043460  -0.000801  -0.000156  -0.000184   0.000004
    24  H    0.000001  -0.000095   0.000047   0.004289  -0.007345  -0.037855
    25  H   -0.000000   0.000004   0.000001  -0.001132   0.011780  -0.052281
    26  H    0.000001  -0.000095   0.000049   0.004292  -0.007362  -0.037852
               7          8          9         10         11         12
     1  C   -0.000000   0.000000  -0.061398  -0.000009   0.402923   0.402893
     2  C    0.000011  -0.000001   0.280836   0.000128  -0.040326  -0.040320
     3  C   -0.001100   0.000060  -0.053848  -0.001990  -0.005109  -0.005114
     4  C   -0.000799  -0.000981  -0.014777   0.009179  -0.000568  -0.000569
     5  C   -0.110034   0.011855   0.005431  -0.076492   0.000056   0.000056
     6  C    0.614531  -0.014207  -0.000195   0.263179  -0.000002  -0.000002
     7  C    5.146164   0.250272   0.000015  -0.025793  -0.000000  -0.000000
     8  C    0.250272   4.937232   0.000000  -0.024173  -0.000000  -0.000000
     9  C    0.000015   0.000000   4.977478  -0.000257  -0.001111  -0.001085
    10  C   -0.025793  -0.024173  -0.000257   5.006223   0.000000   0.000000
    11  H   -0.000000  -0.000000  -0.001111   0.000000   0.573332  -0.039201
    12  H   -0.000000  -0.000000  -0.001085   0.000000  -0.039201   0.573355
    13  H   -0.000000   0.000000   0.007315   0.000000  -0.022678  -0.022679
    14  H   -0.000001   0.000002   0.007450   0.000236   0.000317   0.000318
    15  H    0.000729  -0.000022   0.000292   0.003733  -0.000008  -0.000008
    16  H    0.003274   0.000214   0.000095   0.006123   0.000003   0.000002
    17  H    0.416708  -0.035400   0.000000   0.007624   0.000000   0.000000
    18  H   -0.077224   0.431694   0.000000  -0.005145  -0.000000  -0.000000
    19  H   -0.037523   0.405162  -0.000000   0.000920   0.000000  -0.000000
    20  H   -0.037611   0.405242  -0.000000   0.000920  -0.000000   0.000000
    21  H    0.000008   0.000000   0.424721   0.000066  -0.000021  -0.000021
    22  H   -0.000001  -0.000000   0.404948   0.000000  -0.001508   0.005441
    23  H   -0.000000  -0.000000   0.404985   0.000000   0.005444  -0.001512
    24  H   -0.004656   0.001034   0.000025   0.409783   0.000000  -0.000000
    25  H   -0.004377  -0.002433   0.000002   0.420552   0.000000   0.000000
    26  H   -0.004666   0.001035   0.000025   0.409791  -0.000000   0.000000
              13         14         15         16         17         18
     1  C    0.417598  -0.013550  -0.000128  -0.000161  -0.000000   0.000000
     2  C   -0.062818  -0.037148   0.001336   0.001402   0.000019   0.000000
     3  C    0.008004   0.413525  -0.048464  -0.002176  -0.000041   0.000006
     4  C    0.001010  -0.054560   0.400384  -0.052107  -0.000026  -0.000118
     5  C   -0.000083   0.011323  -0.011456   0.425921  -0.002518   0.002072
     6  C    0.000012  -0.000699  -0.016859  -0.058347  -0.060842   0.018343
     7  C   -0.000000  -0.000001   0.000729   0.003274   0.416708  -0.077224
     8  C    0.000000   0.000002  -0.000022   0.000214  -0.035400   0.431694
     9  C    0.007315   0.007450   0.000292   0.000095   0.000000   0.000000
    10  C    0.000000   0.000236   0.003733   0.006123   0.007624  -0.005145
    11  H   -0.022678   0.000317  -0.000008   0.000003   0.000000  -0.000000
    12  H   -0.022679   0.000318  -0.000008   0.000002   0.000000  -0.000000
    13  H    0.542065   0.005020   0.000043   0.000018   0.000000   0.000000
    14  H    0.005020   0.531294   0.004253   0.007851   0.000020  -0.000000
    15  H    0.000043   0.004253   0.512478   0.005822   0.000073  -0.000007
    16  H    0.000018   0.007851   0.005822   0.527985   0.007572   0.000060
    17  H    0.000000   0.000020   0.000073   0.007572   0.536511   0.004391
    18  H    0.000000  -0.000000  -0.000007   0.000060   0.004391   0.539410
    19  H   -0.000000   0.000000   0.000001  -0.000045  -0.001500  -0.023543
    20  H   -0.000000   0.000000   0.000001  -0.000045  -0.001528  -0.023548
    21  H   -0.000341   0.000072   0.004998   0.000007  -0.000001  -0.000000
    22  H   -0.000070  -0.000254  -0.000175  -0.000001   0.000000  -0.000000
    23  H   -0.000069  -0.000253  -0.000174  -0.000001   0.000000  -0.000000
    24  H   -0.000000  -0.000016  -0.002082  -0.000122  -0.000330  -0.000279
    25  H    0.000000   0.000002   0.000540  -0.000124   0.000254   0.008001
    26  H   -0.000000  -0.000016  -0.002081  -0.000122  -0.000330  -0.000278
              19         20         21         22         23         24
     1  C   -0.000000  -0.000000   0.006851  -0.002083  -0.002094   0.000001
     2  C   -0.000000  -0.000000  -0.048148  -0.043421  -0.043460  -0.000095
     3  C   -0.000003  -0.000003  -0.007052  -0.000836  -0.000801   0.000047
     4  C    0.000063   0.000063  -0.002177  -0.000152  -0.000156   0.004289
     5  C   -0.000960  -0.000961   0.002040  -0.000185  -0.000184  -0.007345
     6  C   -0.004901  -0.004828  -0.000168   0.000004   0.000004  -0.037855
     7  C   -0.037523  -0.037611   0.000008  -0.000001  -0.000000  -0.004656
     8  C    0.405162   0.405242   0.000000  -0.000000  -0.000000   0.001034
     9  C   -0.000000  -0.000000   0.424721   0.404948   0.404985   0.000025
    10  C    0.000920   0.000920   0.000066   0.000000   0.000000   0.409783
    11  H    0.000000  -0.000000  -0.000021  -0.001508   0.005444   0.000000
    12  H   -0.000000   0.000000  -0.000021   0.005441  -0.001512  -0.000000
    13  H   -0.000000  -0.000000  -0.000341  -0.000070  -0.000069  -0.000000
    14  H    0.000000   0.000000   0.000072  -0.000254  -0.000253  -0.000016
    15  H    0.000001   0.000001   0.004998  -0.000175  -0.000174  -0.002082
    16  H   -0.000045  -0.000045   0.000007  -0.000001  -0.000001  -0.000122
    17  H   -0.001500  -0.001528  -0.000001   0.000000   0.000000  -0.000330
    18  H   -0.023543  -0.023548  -0.000000  -0.000000  -0.000000  -0.000279
    19  H    0.563998  -0.034833  -0.000000  -0.000000   0.000000   0.000359
    20  H   -0.034833   0.563980  -0.000000   0.000000  -0.000000  -0.000210
    21  H   -0.000000  -0.000000   0.536125  -0.022977  -0.022981   0.000118
    22  H   -0.000000   0.000000  -0.022977   0.565706  -0.035781  -0.000007
    23  H    0.000000  -0.000000  -0.022981  -0.035781   0.565705   0.000011
    24  H    0.000359  -0.000210   0.000118  -0.000007   0.000011   0.561891
    25  H   -0.000173  -0.000171  -0.000005  -0.000000  -0.000000  -0.021969
    26  H   -0.000211   0.000357   0.000118   0.000011  -0.000007  -0.037519
              25         26
     1  C   -0.000000   0.000001
     2  C    0.000004  -0.000095
     3  C    0.000001   0.000049
     4  C   -0.001132   0.004292
     5  C    0.011780  -0.007362
     6  C   -0.052281  -0.037852
     7  C   -0.004377  -0.004666
     8  C   -0.002433   0.001035
     9  C    0.000002   0.000025
    10  C    0.420552   0.409791
    11  H    0.000000  -0.000000
    12  H    0.000000   0.000000
    13  H    0.000000  -0.000000
    14  H    0.000002  -0.000016
    15  H    0.000540  -0.002081
    16  H   -0.000124  -0.000122
    17  H    0.000254  -0.000330
    18  H    0.008001  -0.000278
    19  H   -0.000173  -0.000211
    20  H   -0.000171   0.000357
    21  H   -0.000005   0.000118
    22  H   -0.000000   0.000011
    23  H   -0.000000  -0.000007
    24  H   -0.021969  -0.037519
    25  H    0.530812  -0.021971
    26  H   -0.021971   0.561906
 Mulliken charges:
               1
     1  C   -0.372626
     2  C    0.092068
     3  C   -0.254046
     4  C   -0.109488
     5  C   -0.196693
     6  C    0.021967
     7  C   -0.127928
     8  C   -0.366586
     9  C   -0.380951
    10  C   -0.404599
    11  H    0.128457
    12  H    0.128445
    13  H    0.127653
    14  H    0.124813
    15  H    0.146781
    16  H    0.126899
    17  H    0.129341
    18  H    0.126165
    19  H    0.133189
    20  H    0.133175
    21  H    0.128766
    22  H    0.131339
    23  H    0.131324
    24  H    0.134926
    25  H    0.132687
    26  H    0.134922
 Sum of Mulliken charges =  -0.00000
 Mulliken charges with hydrogens summed into heavy atoms:
               1
     1  C    0.011929
     2  C    0.092068
     3  C   -0.129234
     4  C    0.037293
     5  C   -0.069794
     6  C    0.021967
     7  C    0.001414
     8  C    0.025944
     9  C    0.010477
    10  C   -0.002064
 Electronic spatial extent (au):  <R**2>=           2880.8202
 Charge=             -0.0000 electrons
 Dipole moment (field-independent basis, Debye):
    X=              0.1250    Y=              0.5969    Z=              0.0002  Tot=              0.6099
 Quadrupole moment (field-independent basis, Debye-Ang):
   XX=            -53.4639   YY=            -60.0235   ZZ=            -67.9081
   XY=              0.9558   XZ=              0.0012   YZ=              0.0002
 Traceless Quadrupole moment (field-independent basis, Debye-Ang):
   XX=              7.0013   YY=              0.4417   ZZ=             -7.4430
   XY=              0.9558   XZ=              0.0012   YZ=              0.0002
 Octapole moment (field-independent basis, Debye-Ang**2):
  XXX=             -1.2167  YYY=             -3.4339  ZZZ=              0.0012  XYY=             -2.3020
  XXY=              1.0767  XXZ=              0.0037  XZZ=              2.2535  YZZ=              3.0375
  YYZ=              0.0012  XYZ=              0.0035
 Hexadecapole moment (field-independent basis, Debye-Ang**3):
 XXXX=          -3274.6160 YYYY=           -450.2156 ZZZZ=           -107.3955 XXXY=             23.0838
 XXXZ=             -0.0050 YYYX=             -1.1262 YYYZ=              0.0010 ZZZX=              0.0216
 ZZZY=             -0.0001 XXYY=           -639.5656 XXZZ=           -598.0764 YYZZ=            -95.6387
 XXYZ=             -0.0117 YYXZ=             -0.0156 ZZXY=              5.2218
 N-N= 4.785987318692D+02 E-N=-1.862030794784D+03  KE= 3.884446983353D+02
 Unable to Open any file for archive entry.
 1\1\GINC-CN05\SP\RB3LYP TD-FC\def2TZVP\C10H16\2100011873\03-Nov-2023\0
 \\# td=(nstates=50) b3lyp/def2TZVP scrf(smd, solvent=ethanol)\\B-2\\0,
 1\C,0,4.186043,-0.985243,-0.000113\C,0,2.965678,-0.099955,0.000017\C,0
 ,1.724259,-0.63647,-0.000213\C,0,0.452578,0.059668,-0.000179\C,0,-0.74
 1079,-0.579413,-0.000205\C,0,-2.064372,0.040415,-0.000137\C,0,-3.15287
 8,-0.763225,0.000253\C,0,-4.604173,-0.385851,0.000427\C,0,3.260391,1.3
 78273,0.000567\C,0,-2.133175,1.550261,-0.000541\H,0,4.817179,-0.791217
 ,-0.879673\H,0,4.817098,-0.791647,0.879598\H,0,3.922096,-2.047445,-0.0
 00374\H,0,1.652379,-1.72528,-0.000493\H,0,0.469127,1.146468,-0.000113\
 H,0,-0.735417,-1.670538,-0.000304\H,0,-2.968126,-1.838635,0.00044\H,0,
 -4.773466,0.693748,0.001475\H,0,-5.114894,-0.80271,-0.879231\H,0,-5.11
 5042,-0.80447,0.879137\H,0,2.363003,2.000757,0.000075\H,0,3.859006,1.6
 53716,0.880554\H,0,3.86032,1.65418,-0.878355\H,0,-1.627265,1.964044,-0
 .882102\H,0,-3.158688,1.923675,-0.000452\H,0,-1.626926,1.964596,0.8805
 67\\Version=ES64L-G16RevC.02\State=1-A\HF=-390.8284918\RMSD=8.978e-09\
 PG=C01 [X(C10H16)]\\@
 The archive entry for this job was punched.


 IF IT'S NOT TRUE, IT'S WELL INVENTED -- DANTE
 Job cpu time:       0 days  3 hours  9 minutes 42.8 seconds.
 Elapsed time:       0 days  0 hours  6 minutes 21.8 seconds.
 File lengths (MBytes):  RWF=   3120 Int=      0 D2E=      0 Chk=    256 Scr=     32
 Normal termination of Gaussian 16 at Fri Nov  3 15:56:35 2023.
