 Entering Gaussian System, Link 0=g16
 Initial command:
 /home/zcwang/Gaussian16_AVX2/g16/l1.exe "/home/zcwang/Gaussian16_AVX2/g16/tmp/Gau-4369.inp" -scrdir="/home/zcwang/Gaussian16_AVX2/g16/tmp/"
 Default is to use a total of   4 processors:
                                4 via shared-memory
                                1 via Linda
 Entering Link 1 = /home/zcwang/Gaussian16_AVX2/g16/l1.exe PID=      4371.
  
 Copyright (c) 1988-2021, Gaussian, Inc.  All Rights Reserved.
  
 This is part of the Gaussian(R) 16 program.  It is based on
 the Gaussian(R) 09 system (copyright 2009, Gaussian, Inc.),
 the Gaussian(R) 03 system (copyright 2003, Gaussian, Inc.),
 the Gaussian(R) 98 system (copyright 1998, Gaussian, Inc.),
 the Gaussian(R) 94 system (copyright 1995, Gaussian, Inc.),
 the Gaussian 92(TM) system (copyright 1992, Gaussian, Inc.),
 the Gaussian 90(TM) system (copyright 1990, Gaussian, Inc.),
 the Gaussian 88(TM) system (copyright 1988, Gaussian, Inc.),
 the Gaussian 86(TM) system (copyright 1986, Carnegie Mellon
 University), and the Gaussian 82(TM) system (copyright 1983,
 Carnegie Mellon University). Gaussian is a federally registered
 trademark of Gaussian, Inc.
  
 This software contains proprietary and confidential information,
 including trade secrets, belonging to Gaussian, Inc.
  
 This software is provided under written license and may be
 used, copied, transmitted, or stored only in accord with that
 written license.
  
 The following legend is applicable only to US Government
 contracts under FAR:
  
                    RESTRICTED RIGHTS LEGEND
  
 Use, reproduction and disclosure by the US Government is
 subject to restrictions as set forth in subparagraphs (a)
 and (c) of the Commercial Computer Software - Restricted
 Rights clause in FAR 52.227-19.
  
 Gaussian, Inc.
 340 Quinnipiac St., Bldg. 40, Wallingford CT 06492
  
  
 ---------------------------------------------------------------
 Warning -- This program may not be used in any manner that
 competes with the business of Gaussian, Inc. or will provide
 assistance to any competitor of Gaussian, Inc.  The licensee
 of this program is prohibited from giving any competitor of
 Gaussian, Inc. access to this program.  By using this program,
 the user acknowledges that Gaussian, Inc. is engaged in the
 business of creating and licensing software in the field of
 computational chemistry and represents and warrants to the
 licensee that it is not a competitor of Gaussian, Inc. and that
 it will not use this program in any manner prohibited above.
 ---------------------------------------------------------------
  

 Cite this work as:
 Gaussian 16, Revision C.02,
 M. J. Frisch, G. W. Trucks, H. B. Schlegel, G. E. Scuseria, 
 M. A. Robb, J. R. Cheeseman, G. Scalmani, V. Barone, 
 G. A. Petersson, H. Nakatsuji, X. Li, M. Caricato, A. V. Marenich, 
 J. Bloino, B. G. Janesko, R. Gomperts, B. Mennucci, H. P. Hratchian, 
 J. V. Ortiz, A. F. Izmaylov, J. L. Sonnenberg, D. Williams-Young, 
 F. Ding, F. Lipparini, F. Egidi, J. Goings, B. Peng, A. Petrone, 
 T. Henderson, D. Ranasinghe, V. G. Zakrzewski, J. Gao, N. Rega, 
 G. Zheng, W. Liang, M. Hada, M. Ehara, K. Toyota, R. Fukuda, 
 J. Hasegawa, M. Ishida, T. Nakajima, Y. Honda, O. Kitao, H. Nakai, 
 T. Vreven, K. Throssell, J. A. Montgomery, Jr., J. E. Peralta, 
 F. Ogliaro, M. J. Bearpark, J. J. Heyd, E. N. Brothers, K. N. Kudin, 
 V. N. Staroverov, T. A. Keith, R. Kobayashi, J. Normand, 
 K. Raghavachari, A. P. Rendell, J. C. Burant, S. S. Iyengar, 
 J. Tomasi, M. Cossi, J. M. Millam, M. Klene, C. Adamo, R. Cammi, 
 J. W. Ochterski, R. L. Martin, K. Morokuma, O. Farkas, 
 J. B. Foresman, and D. J. Fox, Gaussian, Inc., Wallingford CT, 2019.
 
 ******************************************
 Gaussian 16:  ES64L-G16RevC.02  7-Dec-2021
                28-Oct-2023 
 ******************************************
 %nprocshared=4
 Will use up to    4 processors via shared memory.
 %mem=2000MB
 ----------------------------------------------------------------
 # td=(nstates=50) b3lyp/6-311+g(2d,p) scrf(smd, solvent=ethanol)
 ----------------------------------------------------------------
 1/38=1,172=1/1;
 2/12=2,17=6,18=5,40=1/2;
 3/5=4,6=6,7=112,11=9,25=1,30=1,70=32201,72=4,74=-5/1,2,3,8;
 4//1;
 5/5=2,38=5,53=4/2;
 8/6=1,10=2,108=50/1;
 9/41=50,42=1,70=2/14;
 6/7=2,8=2,9=2,10=2/1;
 99/5=1,9=1/99;
 ---
 A-1
 ---
 Symbolic Z-matrix:
 Charge =  1 Multiplicity = 1
 C                    -1.25921   0.2167   -0.03937 
 C                     0.        0.82894  -0.00012 
 C                     1.25921   0.21668   0.03925 
 N                     2.43346   0.90485   0.146 
 S                    -1.55756  -1.51215   0.05388 
 C                    -3.29767  -1.25882  -0.02728 
 C                    -3.5899    0.10887  -0.1183 
 N                    -2.43347   0.90486  -0.14611 
 S                     1.55755  -1.51217  -0.05392 
 C                     3.29766  -1.25885   0.0273 
 C                     3.5899    0.10884   0.11825 
 C                    -4.30157  -2.22442  -0.00362 
 C                    -5.62465  -1.79213  -0.06698 
 C                    -5.92564  -0.42569  -0.14901 
 C                    -4.92039   0.53827  -0.17427 
 C                     4.30156  -2.22445   0.00372 
 C                     5.62464  -1.79215   0.06707 
 C                     5.92564  -0.42571   0.14902 
 C                     4.92038   0.53826   0.17421 
 C                    -2.51035   2.37353  -0.25723 
 C                    -2.56643   3.07379   1.10152 
 C                     2.51034   2.3735    0.2573 
 C                     2.56651   3.07393  -1.10136 
 H                     0.00001   1.90904  -0.00021 
 H                    -4.06058  -3.28031   0.06397 
 H                    -6.42724  -2.52213  -0.04909 
 H                    -6.96206  -0.10651  -0.19134 
 H                    -5.17675   1.59021  -0.22813 
 H                     4.06057  -3.28035  -0.06382 
 H                     6.42723  -2.52216   0.04923 
 H                     6.96205  -0.10653   0.19134 
 H                     5.17673   1.5902    0.22802 
 H                    -1.65749   2.70849  -0.85213 
 H                    -3.39812   2.59717  -0.85222 
 H                    -3.44119   2.75206   1.67457 
 H                    -1.67384   2.86336   1.69908 
 H                    -2.63423   4.15636   0.9543 
 H                     1.65744   2.70838   0.85218 
 H                     3.39807   2.59706   0.85237 
 H                     3.44133   2.75234  -1.67437 
 H                     1.67399   2.86351  -1.69903 
 H                     2.63421   4.15649  -0.95399 
 
                          Input orientation:                          
 ---------------------------------------------------------------------
 Center     Atomic      Atomic             Coordinates (Angstroms)
 Number     Number       Type             X           Y           Z
 ---------------------------------------------------------------------
      1          6           0       -1.259214    0.216698   -0.039367
      2          6           0        0.000003    0.828935   -0.000122
      3          6           0        1.259209    0.216684    0.039249
      4          7           0        2.433464    0.904848    0.145998
      5         16           0       -1.557561   -1.512152    0.053882
      6          6           0       -3.297665   -1.258824   -0.027283
      7          6           0       -3.589904    0.108866   -0.118299
      8          7           0       -2.433474    0.904863   -0.146106
      9         16           0        1.557549   -1.512171   -0.053923
     10          6           0        3.297657   -1.258850    0.027304
     11          6           0        3.589900    0.108842    0.118251
     12          6           0       -4.301571   -2.224422   -0.003624
     13          6           0       -5.624645   -1.792125   -0.066975
     14          6           0       -5.925643   -0.425687   -0.149009
     15          6           0       -4.920394    0.538274   -0.174272
     16          6           0        4.301563   -2.224450    0.003718
     17          6           0        5.624635   -1.792149    0.067066
     18          6           0        5.925635   -0.425707    0.149021
     19          6           0        4.920384    0.538258    0.174213
     20          6           0       -2.510348    2.373529   -0.257226
     21          6           0       -2.566433    3.073786    1.101522
     22          6           0        2.510339    2.373497    0.257299
     23          6           0        2.566508    3.073929   -1.101357
     24          1           0        0.000014    1.909040   -0.000214
     25          1           0       -4.060576   -3.280313    0.063971
     26          1           0       -6.427238   -2.522132   -0.049094
     27          1           0       -6.962056   -0.106514   -0.191342
     28          1           0       -5.176748    1.590213   -0.228130
     29          1           0        4.060566   -3.280345   -0.063815
     30          1           0        6.427230   -2.522156    0.049231
     31          1           0        6.962048   -0.106532    0.191339
     32          1           0        5.176733    1.590201    0.228019
     33          1           0       -1.657488    2.708489   -0.852128
     34          1           0       -3.398115    2.597174   -0.852215
     35          1           0       -3.441185    2.752064    1.674572
     36          1           0       -1.673838    2.863356    1.699082
     37          1           0       -2.634230    4.156364    0.954302
     38          1           0        1.657436    2.708379    0.852183
     39          1           0        3.398074    2.597059    0.852370
     40          1           0        3.441334    2.752344   -1.674368
     41          1           0        1.673988    2.863510   -1.699033
     42          1           0        2.634214    4.156493   -0.953990
 ---------------------------------------------------------------------
                    Distance matrix (angstroms):
                    1          2          3          4          5
     1  C    0.000000
     2  C    1.400715   0.000000
     3  C    2.519650   1.400715   0.000000
     4  N    3.760822   2.439026   1.365225   0.000000
     5  S    1.756880   2.812403   3.305039   4.666761   0.000000
     6  C    2.516465   3.903087   4.790266   6.128405   1.760320
     7  C    2.334518   3.663318   4.852870   6.081480   2.605334
     8  N    1.365229   2.439034   3.760832   4.875696   2.578600
     9  S    3.305050   2.812405   1.756880   2.578600   3.116975
    10  C    4.790278   3.903091   2.516468   2.332918   4.861894
    11  C    4.852874   3.663319   2.334522   1.404186   5.397047
    12  C    3.900805   5.275087   6.073147   7.428015   2.835529
    13  C    4.805530   6.205730   7.171753   8.500126   4.078500
    14  C    4.711713   6.058839   7.215967   8.469476   4.505742
    15  C    3.677751   4.932050   6.191648   7.369951   3.945244
    16  C    6.073162   5.275092   3.900810   3.647265   5.902476
    17  C    7.171762   6.205730   4.805531   4.178947   7.187664
    18  C    7.215970   6.058835   4.711714   3.737064   7.562251
    19  C    6.191643   4.932042   3.677748   2.513952   6.795766
    20  C    2.502942   2.958671   4.353095   5.173093   4.012868
    21  C    3.342664   3.583234   4.891523   5.533199   4.811050
    22  C    4.353082   2.958669   2.502941   1.474865   5.629161
    23  C    4.891599   3.583248   3.342733   2.505695   6.274923
    24  H    2.109789   1.080105   2.109786   2.636562   3.759458
    25  H    4.481896   5.777398   6.366295   7.726245   3.064568
    26  H    5.848911   7.248550   8.160293   9.502331   4.974376
    27  H    5.714015   7.027225   8.230846   9.455816   5.589680
    28  H    4.155628   5.237393   6.586320   7.650165   4.775219
    29  H    6.366315   5.777405   4.481901   4.495256   5.890985
    30  H    8.160306   7.248551   5.848913   5.263448   8.048417
    31  H    8.230848   7.027220   5.714015   4.640368   8.635879
    32  H    6.586305   5.237376   4.155620   2.828774   7.416578
    33  H    2.651080   2.646869   3.938371   4.580968   4.317945
    34  H    3.301861   3.924275   5.305856   6.153675   4.592952
    35  H    3.758546   4.283083   5.585350   6.345096   4.935404
    36  H    3.193574   3.134949   4.285170   4.808092   4.676032
    37  H    4.289407   4.349930   5.614024   6.075132   5.839696
    38  H    3.938297   2.646851   2.651036   2.086538   5.365293
    39  H    5.305812   3.924270   3.301832   2.071958   6.487027
    40  H    5.585506   4.283148   3.758687   2.782584   6.794242
    41  H    4.285298   3.134967   3.193643   2.795943   5.715071
    42  H    5.614027   4.349894   4.289436   3.438527   7.121820
                    6          7          8          9         10
     6  C    0.000000
     7  C    1.401522   0.000000
     8  N    2.332914   1.404178   0.000000
     9  S    4.861892   5.397053   4.666778   0.000000
    10  C    6.595548   7.023556   6.128425   1.760325   0.000000
    11  C    7.023549   7.183700   6.081494   2.605336   1.401520
    12  C    1.393114   2.442100   3.647261   5.902467   7.660389
    13  C    2.387639   2.785062   4.178945   7.187660   8.938722
    14  C    2.759566   2.396324   3.737060   7.562252   9.262533
    15  C    2.425782   1.399188   2.513951   6.795775   8.414669
    16  C    7.660396   8.230097   7.428039   2.835538   1.393114
    17  C    8.938723   9.410417   8.500143   4.078506   2.387638
    18  C    9.262528   9.534291   8.469488   4.505748   2.759567
    19  C    8.414656   8.526133   7.369955   3.945246   2.425783
    20  C    3.723806   2.512656   1.474868   5.629190   6.856242
    21  C    4.536564   3.365443   2.505690   6.274813   7.369751
    22  C    6.856213   6.517867   5.173095   4.012865   3.723803
    23  C    7.369865   6.903580   5.533279   4.811178   4.536676
    24  H    4.572831   4.017721   2.636573   3.759453   4.572826
    25  H    2.162586   3.426556   4.495252   5.890972   7.630940
    26  H    3.375004   3.870065   5.263445   8.048408   9.806901
    27  H    3.844801   3.379813   4.640365   8.635880  10.326538
    28  H    3.418816   2.173597   2.828778   7.416596   8.944157
    29  H    7.630953   8.367760   7.726273   3.064577   2.162585
    30  H    9.806908  10.358249   9.502352   4.974385   3.375004
    31  H   10.326533  10.558691   9.455825   5.589685   3.844802
    32  H    8.944135   8.897652   7.650157   4.775217   3.418816
    33  H    4.371513   3.321261   2.086549   5.365404   6.408326
    34  H    3.944531   2.601364   2.071965   6.487110   7.776621
    35  H    4.359373   3.197343   2.782535   6.794022   8.013296
    36  H    4.754947   3.815940   2.795972   5.714904   6.671071
    37  H    5.543277   4.294884   3.438526   7.121785   8.085243
    38  H    6.408212   5.935813   4.580916   4.317875   4.371459
    39  H    7.776538   7.480985   6.153652   4.592893   3.944471
    40  H    8.013518   7.671221   6.345245   4.935643   4.359588
    41  H    6.671261   6.147792   4.808235   4.676166   4.755039
    42  H    8.085273   7.471366   6.075133   5.839784   5.543378
                   11         12         13         14         15
    11  C    0.000000
    12  C    8.230084   0.000000
    13  C    9.410410   1.393348   0.000000
    14  C    9.534291   2.427796   1.401600   0.000000
    15  C    8.526141   2.836292   2.436851   1.392977   0.000000
    16  C    2.442096   8.603137   9.935870  10.385308   9.628542
    17  C    2.785055   9.935865  11.250079  11.632834  10.802164
    18  C    2.396320  10.385298  11.632829  11.855025  10.893582
    19  C    1.399185   9.628524  10.802152  10.893574   9.846946
    20  C    6.517884   4.941047   5.204586   4.417189   3.030407
    21  C    6.903488   5.683578   5.864737   5.009434   3.687493
    22  C    2.512658   8.222594   9.145246   8.897545   7.666165
    23  C    3.365489   8.743458   9.583497   9.234225   7.958815
    24  H    4.017714   5.965665   6.733489   6.370754   5.110745
    25  H    8.367742   1.085151   2.162906   3.416537   3.921435
    26  H   10.358237   2.146895   1.085074   2.157930   3.413551
    27  H   10.558693   3.405724   2.155324   1.085272   2.141127
    28  H    8.897671   3.920176   3.415669   2.151966   1.084064
    29  H    3.426553   8.428756   9.798884  10.386563   9.759697
    30  H    3.870059  10.733062  12.074524  12.531079  11.755201
    31  H    3.379809  11.462660  12.701685  12.896134  11.905540
    32  H    2.173594  10.219748  11.322408  11.290204  10.159742
    33  H    5.935898   5.660808   6.050647   5.341777   3.976918
    34  H    7.481040   4.978366   4.983973   4.002572   2.648775
    35  H    7.671044   5.321844   5.333867   4.426746   3.241473
    36  H    6.147627   5.974083   6.356205   5.684284   4.410849
    37  H    7.471359   6.664239   6.735734   5.748555   4.426150
    38  H    3.321245   7.782975   8.609767   8.266066   7.002201
    39  H    2.601337   9.124908  10.075693   9.852485   8.630730
    40  H    3.197445   9.354794  10.267808  10.008339   8.779003
    41  H    3.815945   8.029245   8.809574   8.424713   7.156640
    42  H    4.294941   9.472296  10.216732   9.742460   8.412584
                   16         17         18         19         20
    16  C    0.000000
    17  C    1.393347   0.000000
    18  C    2.427797   1.401600   0.000000
    19  C    2.836294   2.436852   1.392980   0.000000
    20  C    8.222629   9.145271   8.897560   7.666168   0.000000
    21  C    8.743332   9.583372   9.234118   7.958721   1.529608
    22  C    4.941043   5.204578   4.417184   3.030400   5.046983
    23  C    5.683698   5.864816   5.009454   3.687470   5.193995
    24  H    5.965658   6.733475   6.370738   5.110725   2.565877
    25  H    8.428751   9.798875  10.386550   9.759676   5.871312
    26  H   10.733060  12.074519  12.531070  11.755185   6.273184
    27  H   11.462670  12.701690  12.896135  11.905534   5.096338
    28  H   10.219774  11.322429  11.290221  10.159752   2.779230
    29  H    1.085152   2.162908   3.416539   3.921438   8.670675
    30  H    2.146896   1.085075   2.157928   3.413552  10.195192
    31  H    3.405724   2.155324   1.085272   2.141130   9.801949
    32  H    3.920178   3.415672   2.151971   1.084064   7.742111
    33  H    7.783100   8.609877   8.266150   7.002262   1.092464
    34  H    9.125005  10.075775   9.852543   8.630766   1.091860
    35  H    9.354549  10.267572  10.008139   8.778830   2.177519
    36  H    8.029038   8.809365   8.424525   7.156470   2.183305
    37  H    9.472255  10.216694   9.742440   8.412575   2.159085
    38  H    5.660751   6.050606   5.341765   3.976921   4.325891
    39  H    4.978298   4.983916   4.002547   2.648771   6.015864
    40  H    5.322072   5.334024   4.426794   3.241453   6.129789
    41  H    5.974182   6.356247   5.684255   4.410775   4.452814
    42  H    6.664360   6.735838   5.748621   4.426177   5.489167
                   21         22         23         24         25
    21  C    0.000000
    22  C    5.193913   0.000000
    23  C    5.585674   1.529610   0.000000
    24  H    3.026071   2.565885   3.025950   0.000000
    25  H    6.609353   8.670632   9.254870   6.589529   0.000000
    26  H    6.895218  10.195163  10.644746   7.806872   2.487712
    27  H    5.577392   9.801939  10.086470   7.250476   4.307757
    28  H    3.283703   7.742124   7.932336   5.191576   5.005316
    29  H    9.254734   5.871307   6.609501   6.589525   8.122147
    30  H   10.644616   6.273177   6.895302   7.806859  10.515184
    31  H   10.086367   5.096333   5.577380   7.250458  11.471153
    32  H    7.932254   2.779221   3.283590   5.191548  10.443979
    33  H    2.185491   4.325948   4.247094   2.027853   6.517654
    34  H    2.176222   6.015886   5.988831   3.570254   5.985241
    35  H    1.094113   6.129650   6.625840   3.918858   6.274333
    36  H    1.094570   4.452644   5.085994   2.569067   6.790786
    37  H    1.094644   5.489173   5.696058   3.591769   7.624390
    38  H    4.246971   1.092463   2.185488   2.027948   8.317534
    39  H    5.988713   1.091862   2.176225   3.570306   9.528722
    40  H    6.625870   2.177525   1.094111   3.918754   9.782302
    41  H    5.086108   2.183307   1.094571   2.568888   8.587198
    42  H    5.695973   2.159083   1.094644   3.591621  10.057959
                   26         27         28         29         30
    26  H    0.000000
    27  H    2.478200   0.000000
    28  H    4.301995   2.463242   0.000000
    29  H   10.515186  11.471167  10.444008   0.000000
    30  H   12.854844  13.607578  12.314252   2.487716   0.000000
    31  H   13.607568  13.929362  12.263982   4.307759   2.478198
    32  H   12.314228  12.263968  10.363525   5.005319   4.301998
    33  H    7.124239   6.041467   3.745011   8.317675   9.671337
    34  H    6.002323   4.521986   2.137051   9.528837  11.115644
    35  H    6.301165   4.904043   2.825306   9.782035  11.306845
    36  H    7.392862   6.352880   4.195881   8.586982   9.866765
    37  H    7.745710   6.181805   3.801010  10.057907  11.293000
    38  H    9.671220   9.127333   7.008812   6.517584   7.124196
    39  H   11.115553  10.757831   8.701080   5.985162   6.002265
    40  H   11.307092  10.890499   8.815526   6.274605   6.301327
    41  H    9.866980   9.256102   7.121617   6.790924   7.392911
    42  H   11.293041  10.528213   8.253714   7.624530   7.745823
                   31         32         33         34         35
    31  H    0.000000
    32  H    2.463249   0.000000
    33  H    9.127407   7.008842   0.000000
    34  H   10.757881   8.701087   1.744183   0.000000
    35  H   10.890308   8.815382   3.093168   2.531896   0.000000
    36  H    9.255920   7.121466   2.555958   3.090809   1.771017
    37  H   10.528198   8.253716   2.512679   2.505613   1.772575
    38  H    6.041469   3.745044   3.727385   5.336285   5.164704
    39  H    4.521977   2.137102   5.336332   7.006696   6.890247
    40  H    4.904025   2.825113   5.164880   6.890434   7.654049
    41  H    6.352813   4.195720   3.440932   5.149200   6.128509
    42  H    6.181853   3.800974   4.530541   6.231439   6.766996
                   36         37         38         39         40
    36  H    0.000000
    37  H    1.774520   0.000000
    38  H    3.440733   4.530506   0.000000
    39  H    5.148993   6.231413   1.744194   0.000000
    40  H    6.128415   6.767101   3.093167   2.531875   0.000000
    41  H    4.770233   5.222298   2.555982   3.090813   1.771010
    42  H    5.222098   5.603399   2.512646   2.505644   1.772575
                   41         42
    41  H    0.000000
    42  H    1.774522   0.000000
 Stoichiometry    C19H19N2S2(1+)
 Framework group  C1[X(C19H19N2S2)]
 Deg. of freedom   120
 Full point group                 C1      NOp   1
 Largest Abelian subgroup         C1      NOp   1
 Largest concise Abelian subgroup C1      NOp   1
                         Standard orientation:                         
 ---------------------------------------------------------------------
 Center     Atomic      Atomic             Coordinates (Angstroms)
 Number     Number       Type             X           Y           Z
 ---------------------------------------------------------------------
      1          6           0       -1.259214    0.216698   -0.039367
      2          6           0        0.000003    0.828935   -0.000122
      3          6           0        1.259209    0.216684    0.039249
      4          7           0        2.433464    0.904848    0.145998
      5         16           0       -1.557561   -1.512152    0.053882
      6          6           0       -3.297665   -1.258824   -0.027283
      7          6           0       -3.589904    0.108866   -0.118299
      8          7           0       -2.433474    0.904863   -0.146106
      9         16           0        1.557549   -1.512171   -0.053923
     10          6           0        3.297657   -1.258850    0.027304
     11          6           0        3.589900    0.108842    0.118251
     12          6           0       -4.301571   -2.224422   -0.003624
     13          6           0       -5.624645   -1.792125   -0.066975
     14          6           0       -5.925643   -0.425687   -0.149009
     15          6           0       -4.920394    0.538274   -0.174272
     16          6           0        4.301563   -2.224450    0.003718
     17          6           0        5.624635   -1.792149    0.067066
     18          6           0        5.925635   -0.425707    0.149021
     19          6           0        4.920384    0.538258    0.174213
     20          6           0       -2.510348    2.373529   -0.257226
     21          6           0       -2.566433    3.073786    1.101522
     22          6           0        2.510339    2.373497    0.257299
     23          6           0        2.566508    3.073929   -1.101357
     24          1           0        0.000014    1.909040   -0.000214
     25          1           0       -4.060576   -3.280313    0.063971
     26          1           0       -6.427238   -2.522132   -0.049094
     27          1           0       -6.962056   -0.106514   -0.191342
     28          1           0       -5.176748    1.590213   -0.228130
     29          1           0        4.060566   -3.280345   -0.063815
     30          1           0        6.427230   -2.522156    0.049231
     31          1           0        6.962048   -0.106532    0.191339
     32          1           0        5.176733    1.590201    0.228019
     33          1           0       -1.657488    2.708489   -0.852128
     34          1           0       -3.398115    2.597174   -0.852215
     35          1           0       -3.441185    2.752064    1.674572
     36          1           0       -1.673838    2.863356    1.699082
     37          1           0       -2.634230    4.156364    0.954302
     38          1           0        1.657436    2.708379    0.852183
     39          1           0        3.398074    2.597059    0.852370
     40          1           0        3.441334    2.752344   -1.674368
     41          1           0        1.673988    2.863510   -1.699033
     42          1           0        2.634214    4.156493   -0.953990
 ---------------------------------------------------------------------
 Rotational constants (GHZ):           0.5197631           0.1187459           0.0985340
 Standard basis: 6-311+G(2d,p) (5D, 7F)
 There are   797 symmetry adapted cartesian basis functions of A   symmetry.
 There are   751 symmetry adapted basis functions of A   symmetry.
   751 basis functions,  1146 primitive gaussians,   797 cartesian basis functions
    89 alpha electrons       89 beta electrons
       nuclear repulsion energy      2127.8579715027 Hartrees.
 NAtoms=   42 NActive=   42 NUniq=   42 SFac= 1.00D+00 NAtFMM=   60 NAOKFM=F Big=F
 Integral buffers will be    131072 words long.
 Regular integral format.
 Two-electron integral symmetry is turned on.
 ------------------------------------------------------------------------------
 Polarizable Continuum Model (PCM)
 =================================
 Model                : PCM.
 Atomic radii         : SMD-Coulomb.
 Polarization charges : Total charges.
 Charge compensation  : None.
 Solution method      : On-the-fly selection.
 Cavity type          : VdW (van der Waals Surface) (Alpha=1.000).
 Cavity algorithm     : GePol (No added spheres)
                        Default sphere list used, NSphG=   42.
                        Lebedev-Laikov grids with approx.  5.0 points / Ang**2.
                        Smoothing algorithm: York/Karplus (Gamma=1.0000).
                        Polarization charges: spherical gaussians, with
                                              point-specific exponents (IZeta= 3).
                        Self-potential: point-specific (ISelfS= 7).
                        Self-field    : sphere-specific E.n sum rule (ISelfD= 2).
 Solvent              : Ethanol, Eps=  24.852000 Eps(inf)=   1.852593
 ------------------------------------------------------------------------------
 ------------------------------------------------------------------------------
 Atomic radii for non-electrostatic terms: SMD-CDS.
 ------------------------------------------------------------------------------
 Nuclear repulsion after PCM non-electrostatic terms =     2127.8526197948 Hartrees.
 One-electron integrals computed using PRISM.
 NBasis=   751 RedAO= T EigKep=  1.86D-06  NBF=   751
 NBsUse=   745 1.00D-06 EigRej=  9.51D-07 NBFU=   745
 ExpMin= 4.05D-02 ExpMax= 9.34D+04 ExpMxC= 3.17D+03 IAcc=3 IRadAn=         5 AccDes= 0.00D+00
 Harris functional with IExCor=  402 and IRadAn=       5 diagonalized for initial guess.
 HarFok:  IExCor=  402 AccDes= 0.00D+00 IRadAn=         5 IDoV= 1 UseB2=F ITyADJ=14
 ICtDFT=  3500011 ScaDFX=  1.000000  1.000000  1.000000  1.000000
 FoFCou: FMM=F IPFlag=           0 FMFlag=      100000 FMFlg1=           0
         NFxFlg=           0 DoJE=T BraDBF=F KetDBF=T FulRan=T
         wScrn=  0.000000 ICntrl=       500 IOpCl=  0 I1Cent=   200000004 NGrid=           0
         NMat0=    1 NMatS0=      1 NMatT0=    0 NMatD0=    1 NMtDS0=    0 NMtDT0=    0
 Petite list used in FoFCou.
 Requested convergence on RMS density matrix=1.00D-08 within 128 cycles.
 Requested convergence on MAX density matrix=1.00D-06.
 Requested convergence on             energy=1.00D-06.
 No special actions if energy rises.
