 Entering Gaussian System, Link 0=g16
 Initial command:
 /home/zcwang/Gaussian16_AVX2/g16/l1.exe "/home/zcwang/Gaussian16_AVX2/g16/tmp/Gau-2252.inp" -scrdir="/home/zcwang/Gaussian16_AVX2/g16/tmp/"
 Default is to use a total of   4 processors:
                                4 via shared-memory
                                1 via Linda
 Entering Link 1 = /home/zcwang/Gaussian16_AVX2/g16/l1.exe PID=      2255.
  
 Copyright (c) 1988-2021, Gaussian, Inc.  All Rights Reserved.
  
 This is part of the Gaussian(R) 16 program.  It is based on
 the Gaussian(R) 09 system (copyright 2009, Gaussian, Inc.),
 the Gaussian(R) 03 system (copyright 2003, Gaussian, Inc.),
 the Gaussian(R) 98 system (copyright 1998, Gaussian, Inc.),
 the Gaussian(R) 94 system (copyright 1995, Gaussian, Inc.),
 the Gaussian 92(TM) system (copyright 1992, Gaussian, Inc.),
 the Gaussian 90(TM) system (copyright 1990, Gaussian, Inc.),
 the Gaussian 88(TM) system (copyright 1988, Gaussian, Inc.),
 the Gaussian 86(TM) system (copyright 1986, Carnegie Mellon
 University), and the Gaussian 82(TM) system (copyright 1983,
 Carnegie Mellon University). Gaussian is a federally registered
 trademark of Gaussian, Inc.
  
 This software contains proprietary and confidential information,
 including trade secrets, belonging to Gaussian, Inc.
  
 This software is provided under written license and may be
 used, copied, transmitted, or stored only in accord with that
 written license.
  
 The following legend is applicable only to US Government
 contracts under FAR:
  
                    RESTRICTED RIGHTS LEGEND
  
 Use, reproduction and disclosure by the US Government is
 subject to restrictions as set forth in subparagraphs (a)
 and (c) of the Commercial Computer Software - Restricted
 Rights clause in FAR 52.227-19.
  
 Gaussian, Inc.
 340 Quinnipiac St., Bldg. 40, Wallingford CT 06492
  
  
 ---------------------------------------------------------------
 Warning -- This program may not be used in any manner that
 competes with the business of Gaussian, Inc. or will provide
 assistance to any competitor of Gaussian, Inc.  The licensee
 of this program is prohibited from giving any competitor of
 Gaussian, Inc. access to this program.  By using this program,
 the user acknowledges that Gaussian, Inc. is engaged in the
 business of creating and licensing software in the field of
 computational chemistry and represents and warrants to the
 licensee that it is not a competitor of Gaussian, Inc. and that
 it will not use this program in any manner prohibited above.
 ---------------------------------------------------------------
  

 Cite this work as:
 Gaussian 16, Revision C.02,
 M. J. Frisch, G. W. Trucks, H. B. Schlegel, G. E. Scuseria, 
 M. A. Robb, J. R. Cheeseman, G. Scalmani, V. Barone, 
 G. A. Petersson, H. Nakatsuji, X. Li, M. Caricato, A. V. Marenich, 
 J. Bloino, B. G. Janesko, R. Gomperts, B. Mennucci, H. P. Hratchian, 
 J. V. Ortiz, A. F. Izmaylov, J. L. Sonnenberg, D. Williams-Young, 
 F. Ding, F. Lipparini, F. Egidi, J. Goings, B. Peng, A. Petrone, 
 T. Henderson, D. Ranasinghe, V. G. Zakrzewski, J. Gao, N. Rega, 
 G. Zheng, W. Liang, M. Hada, M. Ehara, K. Toyota, R. Fukuda, 
 J. Hasegawa, M. Ishida, T. Nakajima, Y. Honda, O. Kitao, H. Nakai, 
 T. Vreven, K. Throssell, J. A. Montgomery, Jr., J. E. Peralta, 
 F. Ogliaro, M. J. Bearpark, J. J. Heyd, E. N. Brothers, K. N. Kudin, 
 V. N. Staroverov, T. A. Keith, R. Kobayashi, J. Normand, 
 K. Raghavachari, A. P. Rendell, J. C. Burant, S. S. Iyengar, 
 J. Tomasi, M. Cossi, J. M. Millam, M. Klene, C. Adamo, R. Cammi, 
 J. W. Ochterski, R. L. Martin, K. Morokuma, O. Farkas, 
 J. B. Foresman, and D. J. Fox, Gaussian, Inc., Wallingford CT, 2019.
 
 ******************************************
 Gaussian 16:  ES64L-G16RevC.02  7-Dec-2021
                31-Oct-2023 
 ******************************************
 %nprocshared=16
 Will use up to   16 processors via shared memory.
 %mem=4000MB
 -------------------------------------------------------------
 # td=(nstates=50) b3lyp/6-31g(d,p) scrf(smd, solvent=ethanol)
 -------------------------------------------------------------
 1/38=1,172=1/1;
 2/12=2,17=6,18=5,40=1/2;
 3/5=1,6=6,7=101,11=9,25=1,30=1,70=32201,72=4,74=-5/1,2,3,8;
 4//1;
 5/5=2,38=5,53=4/2;
 8/6=1,10=2,108=50/1;
 9/41=50,42=1,70=2/14;
 6/7=2,8=2,9=2,10=2/1;
 99/5=1,9=1/99;
 ---
 A-1
 ---
 Symbolic Z-matrix:
 Charge =  1 Multiplicity = 1
 C                    -1.25921   0.2167   -0.03937 
 C                     0.        0.82894  -0.00012 
 C                     1.25921   0.21668   0.03925 
 N                     2.43346   0.90485   0.146 
 S                    -1.55756  -1.51215   0.05388 
 C                    -3.29767  -1.25882  -0.02728 
 C                    -3.5899    0.10887  -0.1183 
 N                    -2.43347   0.90486  -0.14611 
 S                     1.55755  -1.51217  -0.05392 
 C                     3.29766  -1.25885   0.0273 
 C                     3.5899    0.10884   0.11825 
 C                    -4.30157  -2.22442  -0.00362 
 C                    -5.62465  -1.79213  -0.06698 
 C                    -5.92564  -0.42569  -0.14901 
 C                    -4.92039   0.53827  -0.17427 
 C                     4.30156  -2.22445   0.00372 
 C                     5.62464  -1.79215   0.06707 
 C                     5.92564  -0.42571   0.14902 
 C                     4.92038   0.53826   0.17421 
 C                    -2.51035   2.37353  -0.25723 
 C                    -2.56643   3.07379   1.10152 
 C                     2.51034   2.3735    0.2573 
 C                     2.56651   3.07393  -1.10136 
 H                     0.00001   1.90904  -0.00021 
 H                    -4.06058  -3.28031   0.06397 
 H                    -6.42724  -2.52213  -0.04909 
 H                    -6.96206  -0.10651  -0.19134 
 H                    -5.17675   1.59021  -0.22813 
 H                     4.06057  -3.28035  -0.06382 
 H                     6.42723  -2.52216   0.04923 
 H                     6.96205  -0.10653   0.19134 
 H                     5.17673   1.5902    0.22802 
 H                    -1.65749   2.70849  -0.85213 
 H                    -3.39812   2.59717  -0.85222 
 H                    -3.44119   2.75206   1.67457 
 H                    -1.67384   2.86336   1.69908 
 H                    -2.63423   4.15636   0.9543 
 H                     1.65744   2.70838   0.85218 
 H                     3.39807   2.59706   0.85237 
 H                     3.44133   2.75234  -1.67437 
 H                     1.67399   2.86351  -1.69903 
 H                     2.63421   4.15649  -0.95399 
 
                          Input orientation:                          
 ---------------------------------------------------------------------
 Center     Atomic      Atomic             Coordinates (Angstroms)
 Number     Number       Type             X           Y           Z
 ---------------------------------------------------------------------
      1          6           0       -1.259214    0.216698   -0.039367
      2          6           0        0.000003    0.828935   -0.000122
      3          6           0        1.259209    0.216684    0.039249
      4          7           0        2.433464    0.904848    0.145998
      5         16           0       -1.557561   -1.512152    0.053882
      6          6           0       -3.297665   -1.258824   -0.027283
      7          6           0       -3.589904    0.108866   -0.118299
      8          7           0       -2.433474    0.904863   -0.146106
      9         16           0        1.557549   -1.512171   -0.053923
     10          6           0        3.297657   -1.258850    0.027304
     11          6           0        3.589900    0.108842    0.118251
     12          6           0       -4.301571   -2.224422   -0.003624
     13          6           0       -5.624645   -1.792125   -0.066975
     14          6           0       -5.925643   -0.425687   -0.149009
     15          6           0       -4.920394    0.538274   -0.174272
     16          6           0        4.301563   -2.224450    0.003718
     17          6           0        5.624635   -1.792149    0.067066
     18          6           0        5.925635   -0.425707    0.149021
     19          6           0        4.920384    0.538258    0.174213
     20          6           0       -2.510348    2.373529   -0.257226
     21          6           0       -2.566433    3.073786    1.101522
     22          6           0        2.510339    2.373497    0.257299
     23          6           0        2.566508    3.073929   -1.101357
     24          1           0        0.000014    1.909040   -0.000214
     25          1           0       -4.060576   -3.280313    0.063971
     26          1           0       -6.427238   -2.522132   -0.049094
     27          1           0       -6.962056   -0.106514   -0.191342
     28          1           0       -5.176748    1.590213   -0.228130
     29          1           0        4.060566   -3.280345   -0.063815
     30          1           0        6.427230   -2.522156    0.049231
     31          1           0        6.962048   -0.106532    0.191339
     32          1           0        5.176733    1.590201    0.228019
     33          1           0       -1.657488    2.708489   -0.852128
     34          1           0       -3.398115    2.597174   -0.852215
     35          1           0       -3.441185    2.752064    1.674572
     36          1           0       -1.673838    2.863356    1.699082
     37          1           0       -2.634230    4.156364    0.954302
     38          1           0        1.657436    2.708379    0.852183
     39          1           0        3.398074    2.597059    0.852370
     40          1           0        3.441334    2.752344   -1.674368
     41          1           0        1.673988    2.863510   -1.699033
     42          1           0        2.634214    4.156493   -0.953990
 ---------------------------------------------------------------------
                    Distance matrix (angstroms):
                    1          2          3          4          5
     1  C    0.000000
     2  C    1.400715   0.000000
     3  C    2.519650   1.400715   0.000000
     4  N    3.760822   2.439026   1.365225   0.000000
     5  S    1.756880   2.812403   3.305039   4.666761   0.000000
     6  C    2.516465   3.903087   4.790266   6.128405   1.760320
     7  C    2.334518   3.663318   4.852870   6.081480   2.605334
     8  N    1.365229   2.439034   3.760832   4.875696   2.578600
     9  S    3.305050   2.812405   1.756880   2.578600   3.116975
    10  C    4.790278   3.903091   2.516468   2.332918   4.861894
    11  C    4.852874   3.663319   2.334522   1.404186   5.397047
    12  C    3.900805   5.275087   6.073147   7.428015   2.835529
    13  C    4.805530   6.205730   7.171753   8.500126   4.078500
    14  C    4.711713   6.058839   7.215967   8.469476   4.505742
    15  C    3.677751   4.932050   6.191648   7.369951   3.945244
    16  C    6.073162   5.275092   3.900810   3.647265   5.902476
    17  C    7.171762   6.205730   4.805531   4.178947   7.187664
    18  C    7.215970   6.058835   4.711714   3.737064   7.562251
    19  C    6.191643   4.932042   3.677748   2.513952   6.795766
    20  C    2.502942   2.958671   4.353095   5.173093   4.012868
    21  C    3.342664   3.583234   4.891523   5.533199   4.811050
    22  C    4.353082   2.958669   2.502941   1.474865   5.629161
    23  C    4.891599   3.583248   3.342733   2.505695   6.274923
    24  H    2.109789   1.080105   2.109786   2.636562   3.759458
    25  H    4.481896   5.777398   6.366295   7.726245   3.064568
    26  H    5.848911   7.248550   8.160293   9.502331   4.974376
    27  H    5.714015   7.027225   8.230846   9.455816   5.589680
    28  H    4.155628   5.237393   6.586320   7.650165   4.775219
    29  H    6.366315   5.777405   4.481901   4.495256   5.890985
    30  H    8.160306   7.248551   5.848913   5.263448   8.048417
    31  H    8.230848   7.027220   5.714015   4.640368   8.635879
    32  H    6.586305   5.237376   4.155620   2.828774   7.416578
    33  H    2.651080   2.646869   3.938371   4.580968   4.317945
    34  H    3.301861   3.924275   5.305856   6.153675   4.592952
    35  H    3.758546   4.283083   5.585350   6.345096   4.935404
    36  H    3.193574   3.134949   4.285170   4.808092   4.676032
    37  H    4.289407   4.349930   5.614024   6.075132   5.839696
    38  H    3.938297   2.646851   2.651036   2.086538   5.365293
    39  H    5.305812   3.924270   3.301832   2.071958   6.487027
    40  H    5.585506   4.283148   3.758687   2.782584   6.794242
    41  H    4.285298   3.134967   3.193643   2.795943   5.715071
    42  H    5.614027   4.349894   4.289436   3.438527   7.121820
                    6          7          8          9         10
     6  C    0.000000
     7  C    1.401522   0.000000
     8  N    2.332914   1.404178   0.000000
     9  S    4.861892   5.397053   4.666778   0.000000
    10  C    6.595548   7.023556   6.128425   1.760325   0.000000
    11  C    7.023549   7.183700   6.081494   2.605336   1.401520
    12  C    1.393114   2.442100   3.647261   5.902467   7.660389
    13  C    2.387639   2.785062   4.178945   7.187660   8.938722
    14  C    2.759566   2.396324   3.737060   7.562252   9.262533
    15  C    2.425782   1.399188   2.513951   6.795775   8.414669
    16  C    7.660396   8.230097   7.428039   2.835538   1.393114
    17  C    8.938723   9.410417   8.500143   4.078506   2.387638
    18  C    9.262528   9.534291   8.469488   4.505748   2.759567
    19  C    8.414656   8.526133   7.369955   3.945246   2.425783
    20  C    3.723806   2.512656   1.474868   5.629190   6.856242
    21  C    4.536564   3.365443   2.505690   6.274813   7.369751
    22  C    6.856213   6.517867   5.173095   4.012865   3.723803
    23  C    7.369865   6.903580   5.533279   4.811178   4.536676
    24  H    4.572831   4.017721   2.636573   3.759453   4.572826
    25  H    2.162586   3.426556   4.495252   5.890972   7.630940
    26  H    3.375004   3.870065   5.263445   8.048408   9.806901
    27  H    3.844801   3.379813   4.640365   8.635880  10.326538
    28  H    3.418816   2.173597   2.828778   7.416596   8.944157
    29  H    7.630953   8.367760   7.726273   3.064577   2.162585
    30  H    9.806908  10.358249   9.502352   4.974385   3.375004
    31  H   10.326533  10.558691   9.455825   5.589685   3.844802
    32  H    8.944135   8.897652   7.650157   4.775217   3.418816
    33  H    4.371513   3.321261   2.086549   5.365404   6.408326
    34  H    3.944531   2.601364   2.071965   6.487110   7.776621
    35  H    4.359373   3.197343   2.782535   6.794022   8.013296
    36  H    4.754947   3.815940   2.795972   5.714904   6.671071
    37  H    5.543277   4.294884   3.438526   7.121785   8.085243
    38  H    6.408212   5.935813   4.580916   4.317875   4.371459
    39  H    7.776538   7.480985   6.153652   4.592893   3.944471
    40  H    8.013518   7.671221   6.345245   4.935643   4.359588
    41  H    6.671261   6.147792   4.808235   4.676166   4.755039
    42  H    8.085273   7.471366   6.075133   5.839784   5.543378
                   11         12         13         14         15
    11  C    0.000000
    12  C    8.230084   0.000000
    13  C    9.410410   1.393348   0.000000
    14  C    9.534291   2.427796   1.401600   0.000000
    15  C    8.526141   2.836292   2.436851   1.392977   0.000000
    16  C    2.442096   8.603137   9.935870  10.385308   9.628542
    17  C    2.785055   9.935865  11.250079  11.632834  10.802164
    18  C    2.396320  10.385298  11.632829  11.855025  10.893582
    19  C    1.399185   9.628524  10.802152  10.893574   9.846946
    20  C    6.517884   4.941047   5.204586   4.417189   3.030407
    21  C    6.903488   5.683578   5.864737   5.009434   3.687493
    22  C    2.512658   8.222594   9.145246   8.897545   7.666165
    23  C    3.365489   8.743458   9.583497   9.234225   7.958815
    24  H    4.017714   5.965665   6.733489   6.370754   5.110745
    25  H    8.367742   1.085151   2.162906   3.416537   3.921435
    26  H   10.358237   2.146895   1.085074   2.157930   3.413551
    27  H   10.558693   3.405724   2.155324   1.085272   2.141127
    28  H    8.897671   3.920176   3.415669   2.151966   1.084064
    29  H    3.426553   8.428756   9.798884  10.386563   9.759697
    30  H    3.870059  10.733062  12.074524  12.531079  11.755201
    31  H    3.379809  11.462660  12.701685  12.896134  11.905540
    32  H    2.173594  10.219748  11.322408  11.290204  10.159742
    33  H    5.935898   5.660808   6.050647   5.341777   3.976918
    34  H    7.481040   4.978366   4.983973   4.002572   2.648775
    35  H    7.671044   5.321844   5.333867   4.426746   3.241473
    36  H    6.147627   5.974083   6.356205   5.684284   4.410849
    37  H    7.471359   6.664239   6.735734   5.748555   4.426150
    38  H    3.321245   7.782975   8.609767   8.266066   7.002201
    39  H    2.601337   9.124908  10.075693   9.852485   8.630730
    40  H    3.197445   9.354794  10.267808  10.008339   8.779003
    41  H    3.815945   8.029245   8.809574   8.424713   7.156640
    42  H    4.294941   9.472296  10.216732   9.742460   8.412584
                   16         17         18         19         20
    16  C    0.000000
    17  C    1.393347   0.000000
    18  C    2.427797   1.401600   0.000000
    19  C    2.836294   2.436852   1.392980   0.000000
    20  C    8.222629   9.145271   8.897560   7.666168   0.000000
    21  C    8.743332   9.583372   9.234118   7.958721   1.529608
    22  C    4.941043   5.204578   4.417184   3.030400   5.046983
    23  C    5.683698   5.864816   5.009454   3.687470   5.193995
    24  H    5.965658   6.733475   6.370738   5.110725   2.565877
    25  H    8.428751   9.798875  10.386550   9.759676   5.871312
    26  H   10.733060  12.074519  12.531070  11.755185   6.273184
    27  H   11.462670  12.701690  12.896135  11.905534   5.096338
    28  H   10.219774  11.322429  11.290221  10.159752   2.779230
    29  H    1.085152   2.162908   3.416539   3.921438   8.670675
    30  H    2.146896   1.085075   2.157928   3.413552  10.195192
    31  H    3.405724   2.155324   1.085272   2.141130   9.801949
    32  H    3.920178   3.415672   2.151971   1.084064   7.742111
    33  H    7.783100   8.609877   8.266150   7.002262   1.092464
    34  H    9.125005  10.075775   9.852543   8.630766   1.091860
    35  H    9.354549  10.267572  10.008139   8.778830   2.177519
    36  H    8.029038   8.809365   8.424525   7.156470   2.183305
    37  H    9.472255  10.216694   9.742440   8.412575   2.159085
    38  H    5.660751   6.050606   5.341765   3.976921   4.325891
    39  H    4.978298   4.983916   4.002547   2.648771   6.015864
    40  H    5.322072   5.334024   4.426794   3.241453   6.129789
    41  H    5.974182   6.356247   5.684255   4.410775   4.452814
    42  H    6.664360   6.735838   5.748621   4.426177   5.489167
                   21         22         23         24         25
    21  C    0.000000
    22  C    5.193913   0.000000
    23  C    5.585674   1.529610   0.000000
    24  H    3.026071   2.565885   3.025950   0.000000
    25  H    6.609353   8.670632   9.254870   6.589529   0.000000
    26  H    6.895218  10.195163  10.644746   7.806872   2.487712
    27  H    5.577392   9.801939  10.086470   7.250476   4.307757
    28  H    3.283703   7.742124   7.932336   5.191576   5.005316
    29  H    9.254734   5.871307   6.609501   6.589525   8.122147
    30  H   10.644616   6.273177   6.895302   7.806859  10.515184
    31  H   10.086367   5.096333   5.577380   7.250458  11.471153
    32  H    7.932254   2.779221   3.283590   5.191548  10.443979
    33  H    2.185491   4.325948   4.247094   2.027853   6.517654
    34  H    2.176222   6.015886   5.988831   3.570254   5.985241
    35  H    1.094113   6.129650   6.625840   3.918858   6.274333
    36  H    1.094570   4.452644   5.085994   2.569067   6.790786
    37  H    1.094644   5.489173   5.696058   3.591769   7.624390
    38  H    4.246971   1.092463   2.185488   2.027948   8.317534
    39  H    5.988713   1.091862   2.176225   3.570306   9.528722
    40  H    6.625870   2.177525   1.094111   3.918754   9.782302
    41  H    5.086108   2.183307   1.094571   2.568888   8.587198
    42  H    5.695973   2.159083   1.094644   3.591621  10.057959
                   26         27         28         29         30
    26  H    0.000000
    27  H    2.478200   0.000000
    28  H    4.301995   2.463242   0.000000
    29  H   10.515186  11.471167  10.444008   0.000000
    30  H   12.854844  13.607578  12.314252   2.487716   0.000000
    31  H   13.607568  13.929362  12.263982   4.307759   2.478198
    32  H   12.314228  12.263968  10.363525   5.005319   4.301998
    33  H    7.124239   6.041467   3.745011   8.317675   9.671337
    34  H    6.002323   4.521986   2.137051   9.528837  11.115644
    35  H    6.301165   4.904043   2.825306   9.782035  11.306845
    36  H    7.392862   6.352880   4.195881   8.586982   9.866765
    37  H    7.745710   6.181805   3.801010  10.057907  11.293000
    38  H    9.671220   9.127333   7.008812   6.517584   7.124196
    39  H   11.115553  10.757831   8.701080   5.985162   6.002265
    40  H   11.307092  10.890499   8.815526   6.274605   6.301327
    41  H    9.866980   9.256102   7.121617   6.790924   7.392911
    42  H   11.293041  10.528213   8.253714   7.624530   7.745823
                   31         32         33         34         35
    31  H    0.000000
    32  H    2.463249   0.000000
    33  H    9.127407   7.008842   0.000000
    34  H   10.757881   8.701087   1.744183   0.000000
    35  H   10.890308   8.815382   3.093168   2.531896   0.000000
    36  H    9.255920   7.121466   2.555958   3.090809   1.771017
    37  H   10.528198   8.253716   2.512679   2.505613   1.772575
    38  H    6.041469   3.745044   3.727385   5.336285   5.164704
    39  H    4.521977   2.137102   5.336332   7.006696   6.890247
    40  H    4.904025   2.825113   5.164880   6.890434   7.654049
    41  H    6.352813   4.195720   3.440932   5.149200   6.128509
    42  H    6.181853   3.800974   4.530541   6.231439   6.766996
                   36         37         38         39         40
    36  H    0.000000
    37  H    1.774520   0.000000
    38  H    3.440733   4.530506   0.000000
    39  H    5.148993   6.231413   1.744194   0.000000
    40  H    6.128415   6.767101   3.093167   2.531875   0.000000
    41  H    4.770233   5.222298   2.555982   3.090813   1.771010
    42  H    5.222098   5.603399   2.512646   2.505644   1.772575
                   41         42
    41  H    0.000000
    42  H    1.774522   0.000000
 Stoichiometry    C19H19N2S2(1+)
 Framework group  C1[X(C19H19N2S2)]
 Deg. of freedom   120
 Full point group                 C1      NOp   1
 Largest Abelian subgroup         C1      NOp   1
 Largest concise Abelian subgroup C1      NOp   1
                         Standard orientation:                         
 ---------------------------------------------------------------------
 Center     Atomic      Atomic             Coordinates (Angstroms)
 Number     Number       Type             X           Y           Z
 ---------------------------------------------------------------------
      1          6           0       -1.259214    0.216698   -0.039367
      2          6           0        0.000003    0.828935   -0.000122
      3          6           0        1.259209    0.216684    0.039249
      4          7           0        2.433464    0.904848    0.145998
      5         16           0       -1.557561   -1.512152    0.053882
      6          6           0       -3.297665   -1.258824   -0.027283
      7          6           0       -3.589904    0.108866   -0.118299
      8          7           0       -2.433474    0.904863   -0.146106
      9         16           0        1.557549   -1.512171   -0.053923
     10          6           0        3.297657   -1.258850    0.027304
     11          6           0        3.589900    0.108842    0.118251
     12          6           0       -4.301571   -2.224422   -0.003624
     13          6           0       -5.624645   -1.792125   -0.066975
     14          6           0       -5.925643   -0.425687   -0.149009
     15          6           0       -4.920394    0.538274   -0.174272
     16          6           0        4.301563   -2.224450    0.003718
     17          6           0        5.624635   -1.792149    0.067066
     18          6           0        5.925635   -0.425707    0.149021
     19          6           0        4.920384    0.538258    0.174213
     20          6           0       -2.510348    2.373529   -0.257226
     21          6           0       -2.566433    3.073786    1.101522
     22          6           0        2.510339    2.373497    0.257299
     23          6           0        2.566508    3.073929   -1.101357
     24          1           0        0.000014    1.909040   -0.000214
     25          1           0       -4.060576   -3.280313    0.063971
     26          1           0       -6.427238   -2.522132   -0.049094
     27          1           0       -6.962056   -0.106514   -0.191342
     28          1           0       -5.176748    1.590213   -0.228130
     29          1           0        4.060566   -3.280345   -0.063815
     30          1           0        6.427230   -2.522156    0.049231
     31          1           0        6.962048   -0.106532    0.191339
     32          1           0        5.176733    1.590201    0.228019
     33          1           0       -1.657488    2.708489   -0.852128
     34          1           0       -3.398115    2.597174   -0.852215
     35          1           0       -3.441185    2.752064    1.674572
     36          1           0       -1.673838    2.863356    1.699082
     37          1           0       -2.634230    4.156364    0.954302
     38          1           0        1.657436    2.708379    0.852183
     39          1           0        3.398074    2.597059    0.852370
     40          1           0        3.441334    2.752344   -1.674368
     41          1           0        1.673988    2.863510   -1.699033
     42          1           0        2.634214    4.156493   -0.953990
 ---------------------------------------------------------------------
 Rotational constants (GHZ):           0.5197631           0.1187459           0.0985340
 Standard basis: 6-31G(d,p) (6D, 7F)
 There are   448 symmetry adapted cartesian basis functions of A   symmetry.
 There are   448 symmetry adapted basis functions of A   symmetry.
   448 basis functions,   825 primitive gaussians,   448 cartesian basis functions
    89 alpha electrons       89 beta electrons
       nuclear repulsion energy      2127.8579715027 Hartrees.
 NAtoms=   42 NActive=   42 NUniq=   42 SFac= 1.00D+00 NAtFMM=   60 NAOKFM=F Big=F
 Integral buffers will be    131072 words long.
 Regular integral format.
 Two-electron integral symmetry is turned on.
 ------------------------------------------------------------------------------
 Polarizable Continuum Model (PCM)
 =================================
 Model                : PCM.
 Atomic radii         : SMD-Coulomb.
 Polarization charges : Total charges.
 Charge compensation  : None.
 Solution method      : On-the-fly selection.
 Cavity type          : VdW (van der Waals Surface) (Alpha=1.000).
 Cavity algorithm     : GePol (No added spheres)
                        Default sphere list used, NSphG=   42.
                        Lebedev-Laikov grids with approx.  5.0 points / Ang**2.
                        Smoothing algorithm: York/Karplus (Gamma=1.0000).
                        Polarization charges: spherical gaussians, with
                                              point-specific exponents (IZeta= 3).
                        Self-potential: point-specific (ISelfS= 7).
                        Self-field    : sphere-specific E.n sum rule (ISelfD= 2).
 Solvent              : Ethanol, Eps=  24.852000 Eps(inf)=   1.852593
 ------------------------------------------------------------------------------
 ------------------------------------------------------------------------------
 Atomic radii for non-electrostatic terms: SMD-CDS.
 ------------------------------------------------------------------------------
 Nuclear repulsion after PCM non-electrostatic terms =     2127.8526197948 Hartrees.
 One-electron integrals computed using PRISM.
 NBasis=   448 RedAO= T EigKep=  4.45D-04  NBF=   448
 NBsUse=   448 1.00D-06 EigRej= -1.00D+00 NBFU=   448
 ExpMin= 1.17D-01 ExpMax= 2.19D+04 ExpMxC= 3.30D+03 IAcc=3 IRadAn=         5 AccDes= 0.00D+00
 Harris functional with IExCor=  402 and IRadAn=       5 diagonalized for initial guess.
 HarFok:  IExCor=  402 AccDes= 0.00D+00 IRadAn=         5 IDoV= 1 UseB2=F ITyADJ=14
 ICtDFT=  3500011 ScaDFX=  1.000000  1.000000  1.000000  1.000000
 FoFCou: FMM=F IPFlag=           0 FMFlag=      100000 FMFlg1=           0
         NFxFlg=           0 DoJE=T BraDBF=F KetDBF=T FulRan=T
         wScrn=  0.000000 ICntrl=       500 IOpCl=  0 I1Cent=   200000004 NGrid=           0
         NMat0=    1 NMatS0=      1 NMatT0=    0 NMatD0=    1 NMtDS0=    0 NMtDT0=    0
 Petite list used in FoFCou.
 Requested convergence on RMS density matrix=1.00D-08 within 128 cycles.
 Requested convergence on MAX density matrix=1.00D-06.
 Requested convergence on             energy=1.00D-06.
 No special actions if energy rises.
 Inv3:  Mode=1 IEnd=    30470907.
 Iteration    1 A*A^-1 deviation from unit magnitude is 3.77D-15 for   3042.
 Iteration    1 A*A^-1 deviation from orthogonality  is 1.71D-15 for   2684   1701.
 Iteration    1 A^-1*A deviation from unit magnitude is 3.33D-15 for   3042.
 Iteration    1 A^-1*A deviation from orthogonality  is 4.84D-09 for   2621   2551.
 Iteration    2 A*A^-1 deviation from unit magnitude is 2.44D-15 for    549.
 Iteration    2 A*A^-1 deviation from orthogonality  is 4.11D-15 for   2551   1520.
 Iteration    2 A^-1*A deviation from unit magnitude is 2.00D-15 for   3033.
 Iteration    2 A^-1*A deviation from orthogonality  is 1.33D-15 for   2161    232.
 Error on total polarization charges =  0.04801
 SCF Done:  E(RB3LYP) =  -1641.27428495     A.U. after   13 cycles
            NFock= 13  Conv=0.49D-08     -V/T= 2.0067
 SMD-CDS (non-electrostatic) energy       (kcal/mol) =      -3.36
 (included in total energy above)
 DoSCS=F DFT=T ScalE2(SS,OS)=  1.000000  1.000000
 ExpMin= 1.17D-01 ExpMax= 2.19D+04 ExpMxC= 3.30D+03 IAcc=3 IRadAn=         5 AccDes= 0.00D+00
 HarFok:  IExCor=  205 AccDes= 0.00D+00 IRadAn=         5 IDoV=-2 UseB2=F ITyADJ=14
 ICtDFT= 12500011 ScaDFX=  1.000000  1.000000  1.000000  1.000000
 GSVD:  LWork=       -1209 too small for GESVD, short by        5270 words or        5270 for optimal perf.
 Range of M.O.s used for correlation:    32   448
 NBasis=   448 NAE=    89 NBE=    89 NFC=    31 NFV=     0
 NROrb=    417 NOA=    58 NOB=    58 NVA=   359 NVB=   359
 NEqPCM:  Using non-equilibrium solvation (IEInf=1, Eps=  24.8520, EpsInf=   1.8526)
 Inv3:  Mode=1 IEnd=    30470907.
 Iteration    1 A*A^-1 deviation from unit magnitude is 3.11D-15 for    635.
 Iteration    1 A*A^-1 deviation from orthogonality  is 2.12D-15 for   1509    655.
 Iteration    1 A^-1*A deviation from unit magnitude is 3.33D-15 for   2501.
 Iteration    1 A^-1*A deviation from orthogonality  is 1.97D-15 for    936      2.
 Orbital symmetries:
       Occupied  (A) (A) (A) (A) (A) (A) (A) (A) (A) (A) (A) (A)
                 (A) (A) (A) (A) (A) (A) (A) (A) (A) (A) (A) (A)
                 (A) (A) (A) (A) (A) (A) (A) (A) (A) (A) (A) (A)
                 (A) (A) (A) (A) (A) (A) (A) (A) (A) (A) (A) (A)
                 (A) (A) (A) (A) (A) (A) (A) (A) (A) (A) (A) (A)
                 (A) (A) (A) (A) (A) (A) (A) (A) (A) (A) (A) (A)
                 (A) (A) (A) (A) (A) (A) (A) (A) (A) (A) (A) (A)
                 (A) (A) (A) (A) (A)
       Virtual   (A) (A) (A) (A) (A) (A) (A) (A) (A) (A) (A) (A)
                 (A) (A) (A) (A) (A) (A) (A) (A) (A) (A) (A) (A)
                 (A) (A) (A) (A) (A) (A) (A) (A) (A) (A) (A) (A)
                 (A) (A) (A) (A) (A) (A) (A) (A) (A) (A) (A) (A)
                 (A) (A) (A) (A) (A) (A) (A) (A) (A) (A) (A) (A)
                 (A) (A) (A) (A) (A) (A) (A) (A) (A) (A) (A) (A)
                 (A) (A) (A) (A) (A) (A) (A) (A) (A) (A) (A) (A)
                 (A) (A) (A) (A) (A) (A) (A) (A) (A) (A) (A) (A)
                 (A) (A) (A) (A) (A) (A) (A) (A) (A) (A) (A) (A)
                 (A) (A) (A) (A) (A) (A) (A) (A) (A) (A) (A) (A)
                 (A) (A) (A) (A) (A) (A) (A) (A) (A) (A) (A) (A)
                 (A) (A) (A) (A) (A) (A) (A) (A) (A) (A) (A) (A)
                 (A) (A) (A) (A) (A) (A) (A) (A) (A) (A) (A) (A)
                 (A) (A) (A) (A) (A) (A) (A) (A) (A) (A) (A) (A)
                 (A) (A) (A) (A) (A) (A) (A) (A) (A) (A) (A) (A)
                 (A) (A) (A) (A) (A) (A) (A) (A) (A) (A) (A) (A)
                 (A) (A) (A) (A) (A) (A) (A) (A) (A) (A) (A) (A)
                 (A) (A) (A) (A) (A) (A) (A) (A) (A) (A) (A) (A)
                 (A) (A) (A) (A) (A) (A) (A) (A) (A) (A) (A) (A)
                 (A) (A) (A) (A) (A) (A) (A) (A) (A) (A) (A) (A)
                 (A) (A) (A) (A) (A) (A) (A) (A) (A) (A) (A) (A)
                 (A) (A) (A) (A) (A) (A) (A) (A) (A) (A) (A) (A)
                 (A) (A) (A) (A) (A) (A) (A) (A) (A) (A) (A) (A)
                 (A) (A) (A) (A) (A) (A) (A) (A) (A) (A) (A) (A)
                 (A) (A) (A) (A) (A) (A) (A) (A) (A) (A) (A) (A)
                 (A) (A) (A) (A) (A) (A) (A) (A) (A) (A) (A) (A)
                 (A) (A) (A) (A) (A) (A) (A) (A) (A) (A) (A) (A)
                 (A) (A) (A) (A) (A) (A) (A) (A) (A) (A) (A) (A)
                 (A) (A) (A) (A) (A) (A) (A) (A) (A) (A) (A) (A)
                 (A) (A) (A) (A) (A) (A) (A) (A) (A) (A) (A)
   200 initial guesses have been made.
 Convergence on wavefunction:    0.001000000000000
 Iteration     1 Dimension   200 NMult     0 NNew    200
 CISAX will form    64 AO SS matrices at one time.
 New state      2 was old state      4
 New state      3 was old state      2
 New state      4 was old state      3
 New state      5 was old state      6
 New state      6 was old state      5
 New state      8 was old state     10
 New state      9 was old state      8
 New state     10 was old state     13
 New state     11 was old state      9
 New state     13 was old state     11
 New state     14 was old state     15
 New state     15 was old state     20
 New state     16 was old state     22
 New state     17 was old state     14
 New state     18 was old state     16
 New state     20 was old state     23
 New state     21 was old state     30
 New state     22 was old state     21
 New state     23 was old state     24
 New state     24 was old state     31
 New state     25 was old state     33
 New state     26 was old state     32
 New state     27 was old state     26
 New state     28 was old state     18
 New state     29 was old state     34
 New state     30 was old state     17
 New state     31 was old state     35
 New state     32 was old state     28
 New state     33 was old state     36
 New state     34 was old state     42
 New state     35 was old state     38
 New state     36 was old state     37
 New state     37 was old state     41
 New state     38 was old state     46
 New state     39 was old state     29
 New state     40 was old state     43
 New state     41 was old state     49
 New state     42 was old state     45
 New state     43 was old state     47
 New state     44 was old state     48
 New state     45 was old state     40
 New state     46 was old state     39
 New state     47 was old state     50
 New state     48 was old state     53
 New state     49 was old state     51
 New state     50 was old state     54
 Iteration     2 Dimension   300 NMult   200 NNew    100
 New state      5 was old state      6
 New state      6 was old state      5
 New state      8 was old state      9
 New state      9 was old state      8
 New state     10 was old state     11
 New state     11 was old state     10
 New state     16 was old state     19
 New state     17 was old state     16
 New state     18 was old state     17
 New state     19 was old state     18
 New state     21 was old state     29
 New state     22 was old state     26
 New state     23 was old state     21
 New state     24 was old state     22
 New state     25 was old state     27
 New state     26 was old state     23
 New state     27 was old state     24
 New state     28 was old state     25
 New state     29 was old state     28
 New state     30 was old state     32
 New state     32 was old state     30
 New state     33 was old state     40
 New state     34 was old state     33
 New state     35 was old state     34
 New state     36 was old state     39
 New state     37 was old state     36
 New state     38 was old state     35
 New state     39 was old state     37
 New state     40 was old state     38
 New state     43 was old state     46
 New state     44 was old state     48
 New state     46 was old state     43
 New state     47 was old state     44
 New state     48 was old state     49
 New state     49 was old state     47
 New state     50 was old state     55
 Iteration     3 Dimension   400 NMult   300 NNew    100
 New state     32 was old state     33
 New state     33 was old state     32
 New state     49 was old state     50
 New state     50 was old state     49
 Iteration     4 Dimension   492 NMult   400 NNew     92
 Iteration     5 Dimension   520 NMult   492 NNew     28
 Iteration     6 Dimension   524 NMult   520 NNew      4
 ***********************************************************************
 Excited states from <AA,BB:AA,BB> singles matrix:
 ***********************************************************************
 
 Ground to excited state transition densities written to RWF  633
 Ground to excited state transition electric dipole moments (Au):
       state          X           Y           Z        Dip. S.      Osc.
         1         3.9323      0.0000      0.0319     15.4637      1.2089
         2        -0.0563      0.0000     -0.0314      0.0042      0.0004
         3         0.0000     -0.5849      0.0000      0.3422      0.0345
         4         0.3225      0.0000      0.0228      0.1045      0.0108
         5         0.0000     -0.2252      0.0000      0.0507      0.0056
         6         0.0000      0.4428      0.0000      0.1960      0.0220
         7        -0.4871      0.0000     -0.0470      0.2395      0.0275
         8        -0.0000     -0.8238      0.0000      0.6787      0.0824
         9        -0.0000      0.0059     -0.0000      0.0000      0.0000
        10         0.0632     -0.0000      0.0102      0.0041      0.0005
        11        -0.0000      0.0014      0.0000      0.0000      0.0000
        12         0.2297      0.0000     -0.0112      0.0529      0.0068
        13         1.0967     -0.0000      0.0036      1.2027      0.1583
        14         0.0001     -0.0417      0.0000      0.0017      0.0002
        15        -0.6183      0.0002     -0.0218      0.3828      0.0542
        16        -0.0001     -1.1108      0.0000      1.2339      0.1762
        17        -0.0066      0.5599     -0.0000      0.3135      0.0451
        18         0.7412      0.0052      0.0018      0.5495      0.0790
        19        -0.0000     -0.0937      0.0000      0.0088      0.0013
        20         0.3476     -0.0001     -0.0113      0.1210      0.0179
        21        -0.0003      0.5148     -0.0000      0.2651      0.0397
        22         0.9190      0.0001     -0.0168      0.8449      0.1274
        23        -0.2544     -0.0002      0.0526      0.0675      0.0103
        24        -1.5199      0.0001     -0.0757      2.3160      0.3578
        25        -0.0005     -0.2318     -0.0001      0.0537      0.0083
        26        -0.0001     -0.2352     -0.0000      0.0553      0.0086
        27         0.1259     -0.0001     -0.0201      0.0162      0.0025
        28        -0.1382      0.0000      0.0765      0.0249      0.0040
        29         0.3883     -0.0001      0.0927      0.1594      0.0255
        30        -0.9434     -0.0002     -0.0681      0.8946      0.1436
        31         0.0006     -0.2224      0.0000      0.0495      0.0079
        32         1.4596     -0.0001      0.0420      2.1322      0.3482
        33        -0.0024     -0.0076     -0.0001      0.0001      0.0000
        34         0.0001      0.7404     -0.0000      0.5482      0.0906
        35         0.0001     -0.3979      0.0000      0.1583      0.0264
        36         0.0000      0.4712     -0.0000      0.2220      0.0371
        37        -0.3014     -0.0000      0.0324      0.0919      0.0155
        38        -0.0739      0.0001     -0.0337      0.0066      0.0011
        39        -0.0001      0.2154      0.0000      0.0464      0.0079
        40         0.1333      0.0000      0.0090      0.0178      0.0031
        41         0.0000      0.2417      0.0000      0.0584      0.0100
        42         0.0184      0.0000      0.0980      0.0099      0.0017
        43        -0.0002     -0.3036     -0.0000      0.0922      0.0160
        44        -0.0001      0.0473      0.0000      0.0022      0.0004
        45         1.3025     -0.0000      0.0561      1.6996      0.2978
        46        -0.0003     -0.0336     -0.0000      0.0011      0.0002
        47        -0.1731     -0.0001      0.0439      0.0319      0.0056
        48         0.0710      0.0001      0.0480      0.0073      0.0013
        49         0.0001     -0.0514      0.0000      0.0026      0.0005
        50        -0.0000      0.0439     -0.0000      0.0019      0.0003
 Ground to excited state transition velocity dipole moments (Au):
       state          X           Y           Z        Dip. S.      Osc.
         1        -0.4463      0.0000     -0.0044      0.1992      1.1324
         2         0.0073     -0.0000     -0.0026      0.0001      0.0003
         3        -0.0000      0.0806      0.0000      0.0065      0.0286
         4        -0.0543     -0.0000     -0.0031      0.0030      0.0127
         5        -0.0000      0.0326     -0.0000      0.0011      0.0042
         6        -0.0000     -0.0818      0.0000      0.0067      0.0264
         7         0.0846     -0.0000      0.0085      0.0072      0.0280
         8         0.0000      0.1540     -0.0000      0.0237      0.0868
         9         0.0000     -0.0003      0.0000      0.0000      0.0000
        10        -0.0081      0.0000     -0.0019      0.0001      0.0002
        11         0.0000     -0.0018     -0.0000      0.0000      0.0000
        12        -0.0429     -0.0000      0.0203      0.0023      0.0078
        13        -0.2140      0.0000     -0.0020      0.0458      0.1547
        14        -0.0000      0.0093     -0.0000      0.0001      0.0003
        15         0.1214     -0.0000      0.0041      0.0147      0.0463
        16         0.0000      0.2327     -0.0000      0.0542      0.1686
        17         0.0013     -0.1151      0.0000      0.0133      0.0410
        18        -0.1458     -0.0011     -0.0008      0.0213      0.0657
        19         0.0000      0.0190     -0.0000      0.0004      0.0011
        20        -0.0675      0.0000      0.0035      0.0046      0.0138
        21         0.0001     -0.1295      0.0000      0.0168      0.0497
        22        -0.1998     -0.0000      0.0055      0.0400      0.1178
        23         0.0586      0.0000     -0.0072      0.0035      0.0101
        24         0.3375     -0.0000      0.0188      0.1143      0.3286
        25         0.0001      0.0385      0.0000      0.0015      0.0043
        26         0.0000      0.0441      0.0000      0.0019      0.0055
        27        -0.0292      0.0000      0.0219      0.0013      0.0038
        28         0.0297     -0.0000     -0.0265      0.0016      0.0044
        29        -0.0876      0.0000     -0.0293      0.0085      0.0237
        30         0.2167      0.0001      0.0144      0.0472      0.1307
        31        -0.0001      0.0615     -0.0000      0.0038      0.0105
        32        -0.3463      0.0000     -0.0099      0.1200      0.3266
        33         0.0006      0.0011      0.0000      0.0000      0.0000
        34        -0.0000     -0.1791      0.0000      0.0321      0.0863
        35        -0.0000      0.1076     -0.0000      0.0116      0.0309
        36        -0.0000     -0.1216      0.0000      0.0148      0.0394
        37         0.0686      0.0000     -0.0028      0.0047      0.0125
        38         0.0177     -0.0000      0.0000      0.0003      0.0008
        39         0.0000     -0.0595      0.0000      0.0035      0.0092
        40        -0.0332     -0.0000     -0.0026      0.0011      0.0029
        41        -0.0000     -0.0679     -0.0000      0.0046      0.0119
        42        -0.0068     -0.0000     -0.0239      0.0006      0.0016
        43         0.0000      0.0765      0.0000      0.0059      0.0150
        44         0.0000     -0.0224     -0.0000      0.0005      0.0013
        45        -0.3438      0.0000     -0.0144      0.1184      0.3004
        46         0.0001      0.0073      0.0000      0.0001      0.0001
        47         0.0455      0.0000     -0.0081      0.0021      0.0054
        48        -0.0047     -0.0000     -0.0137      0.0002      0.0005
        49        -0.0000      0.0100     -0.0000      0.0001      0.0002
        50        -0.0000     -0.0075      0.0000      0.0001      0.0001
 Ground to excited state transition magnetic dipole moments (Au):
       state          X           Y           Z
         1         0.0259      0.0001      0.7244
         2         0.2401      0.0000      0.1556
         3        -0.0000      0.0183     -0.0000
         4         0.0239      0.0000     -0.1127
         5         0.0000     -0.0536      0.0000
         6         0.0000      0.0961     -0.0001
         7        -0.0451      0.0000      1.4936
         8         0.0000     -0.0891      0.0000
         9         0.0000      0.4629      0.0001
        10         0.0751      0.0000     -1.3185
        11         0.0000     -0.0222     -0.0003
        12        -0.3710      0.0000     -0.0594
        13         0.0632      0.0000      0.0211
        14         0.0000     -0.0488      0.0000
        15         0.0544     -0.0000     -0.7495
        16         0.0000     -0.0354      0.0000
        17         0.0005     -0.0003     -0.0115
        18        -0.0557      0.0000      1.2865
        19        -0.0000     -0.0008      0.0003
        20         0.0667      0.0000     -0.7657
        21        -0.0000      0.1224     -0.0002
        22         0.0426      0.0001      0.7271
        23        -0.0769     -0.0000      0.0387
        24        -0.0225      0.0000      1.4545
        25         0.0001     -0.0412      0.0008
        26        -0.0000      0.0176      0.0002
        27         0.1016     -0.0000      0.0449
        28         0.3027      0.0000      0.1010
        29         0.4832     -0.0001     -1.0665
        30         0.0938     -0.0000      2.8698
        31        -0.0002     -0.1132     -0.0018
        32        -0.1031     -0.0005      1.3012
        33         0.0002     -0.3038     -0.0019
        34        -0.0000      0.2199      0.0001
        35         0.0000     -0.0091     -0.0000
        36        -0.0000     -0.3055      0.0000
        37         0.0825     -0.0000     -0.2003
        38         0.1797     -0.0001     -0.1210
        39         0.0000      0.1787      0.0000
        40        -0.0968      0.0000     -0.3591
        41         0.0001     -0.0050     -0.0000
        42        -0.2078      0.0000     -0.1244
        43        -0.0001     -0.0211      0.0002
        44         0.0001     -0.1440      0.0002
        45         0.0772     -0.0000     -1.3099
        46        -0.0001     -0.0736      0.0004
        47         0.6035      0.0000      0.1378
        48        -0.0813     -0.0001     -0.8260
        49        -0.0000      0.0341     -0.0000
        50         0.0001     -0.0042      0.0000
 Ground to excited state transition velocity quadrupole moments (Au):
       state          XX          YY          ZZ          XY          XZ          YZ
         1         0.0000     -0.0000      0.0000      0.4557     -0.0000      0.0276
         2        -0.0000      0.0000      0.0000      0.0102     -0.0000     -0.0061
         3         0.3657      0.0293     -0.0107      0.0000      0.0164      0.0000
         4         0.0000     -0.0000      0.0000     -0.3381     -0.0000      0.0167
         5        -1.3426     -0.0809     -0.0036     -0.0000     -0.0293      0.0000
         6        -2.0777      0.1761      0.0280     -0.0000     -0.0924     -0.0000
         7        -0.0001      0.0000      0.0000      0.4854     -0.0000      0.0106
         8        -1.6107     -0.1222     -0.0002      0.0000     -0.0185      0.0000
         9         0.1891      0.0100      0.0004      0.0000      0.0439      0.0000
        10        -0.0000      0.0000      0.0000     -0.7785      0.0000      0.0117
        11        -0.0805      0.0031     -0.0047     -0.0002      0.0191      0.0000
        12        -0.0000      0.0000     -0.0000      0.0905      0.0000     -0.0139
        13        -0.0000     -0.0000      0.0000      0.0312      0.0000      0.0250
        14         0.0026     -0.0504      0.0092     -0.0000     -0.0084      0.0000
        15         0.0007      0.0000     -0.0000     -1.1495      0.0001      0.0203
        16        -3.4805     -0.0790      0.0455     -0.0000     -0.0673      0.0000
        17        -0.3796     -0.0399      0.0190     -0.0142     -0.0026      0.0001
        18        -0.0030     -0.0003      0.0002      1.5797     -0.0001     -0.0069
        19         0.3012      0.0492      0.0046      0.0003      0.0067     -0.0000
        20        -0.0001     -0.0000      0.0000     -0.5810     -0.0000      0.0599
        21         2.7819      0.7398     -0.0637     -0.0003     -0.0514     -0.0000
        22         0.0007      0.0003     -0.0000      0.9503     -0.0001      0.0574
        23        -0.0011     -0.0002     -0.0001      0.0616     -0.0001     -0.0847
        24         0.0006      0.0001      0.0000      0.1277      0.0000     -0.0070
        25        -1.1293     -0.1755     -0.0355     -0.0000     -0.0401      0.0001
        26         0.7292      0.0864     -0.0307      0.0000     -0.0028      0.0000
        27        -0.0002     -0.0000     -0.0000      0.0739     -0.0000     -0.0540
        28        -0.0006      0.0000      0.0000     -0.0007     -0.0000      0.1530
        29         0.0020     -0.0002     -0.0000     -0.5110      0.0001     -0.0019
        30         0.0050     -0.0007     -0.0000      1.6385      0.0002      0.0353
        31         6.7122     -0.8784     -0.0525     -0.0011      0.2855     -0.0000
        32        -0.0002     -0.0001     -0.0000      2.7407     -0.0001     -0.0160
        33        -0.0517     -0.0380      0.0020     -0.0043     -0.0198      0.0000
        34         1.4802      0.5329     -0.0054      0.0003     -0.0474     -0.0000
        35        -1.5400     -0.0336      0.0444      0.0000     -0.0925      0.0000
        36         1.6829      0.0895     -0.0317     -0.0000     -0.0941     -0.0000
        37        -0.0001     -0.0000      0.0000     -0.1117      0.0000     -0.0240
        38         0.0004      0.0000      0.0000     -0.2541      0.0000     -0.0143
        39         0.3477     -0.1431     -0.0401      0.0000     -0.0215     -0.0000
        40         0.0001     -0.0000     -0.0000     -0.1254      0.0000      0.1562
        41         0.2352     -0.2082     -0.1072     -0.0001      0.0267      0.0000
        42         0.0000     -0.0001     -0.0000      0.2185     -0.0000     -0.1387
        43         4.9214     -0.6153     -0.0176      0.0000      0.1752     -0.0000
        44         2.8256     -0.8621     -0.0663      0.0001      0.1542      0.0000
        45         0.0011     -0.0002     -0.0000     -0.1958      0.0001      0.0325
        46        -0.1863     -0.0044      0.0005      0.0001      0.0323     -0.0000
        47         0.0002      0.0001      0.0000     -0.0743     -0.0000      0.2184
        48         0.0004     -0.0001      0.0000     -0.3062      0.0000     -0.0591
        49        -0.5866      0.2605     -0.0238      0.0002     -0.0618     -0.0000
        50         0.2426     -0.0224      0.0046     -0.0001      0.0766      0.0000
 <0|del|b> * <b|rxdel|0> + <0|del|b> * <b|delr+rdel|0>
 Rotatory Strengths (R) in cgs (10**-40 erg-esu-cm/Gauss)
       state          XX          YY          ZZ    R(velocity)    E-M Angle
         1       -15.4835    -75.5043      2.3105    -29.5591       92.61
         2        -1.0481      3.2771      4.4137      2.2143       52.37
         3         0.3504      0.0000      6.5435      2.2980       90.00
         4         3.2336     -6.6403     -0.8977     -1.4348       98.68
         5        -1.6772     -0.0000     -5.7280     -2.4684       90.00
         6       -32.3451     -0.0000     -0.6264    -10.9905       90.00
         7        34.6132     11.6372     -9.6811     12.1898       85.98
         8       -21.1134      0.0000    -32.1544    -17.7559       90.00
         9        -0.2072      0.0000     -0.2506     -0.1526       90.00
        10         7.4804      0.6118     -0.9603      2.3773       80.01
        11         0.1349      0.0000      0.0101      0.0483       90.00
        12         1.1614     24.6974     28.0905     17.9831       34.42
        13        -0.1827    -33.7678    -14.6176    -16.1894      162.09
        14        -0.6559     -0.0000     -0.9299     -0.5286       90.00
        15       -12.8147     17.7764      6.8950      3.9522       87.76
        16        12.2436      0.0000    -39.4351     -9.0638       90.00
        17        -0.4337      0.0013      0.5472      0.0383       90.00
        18        -3.5790     15.3094     11.6635      7.7980       87.82
        19        -0.2285     -0.0000      0.1777     -0.0169       90.00
        20        -7.4970    -14.6763     -0.7403     -7.6378       97.94
        21       -35.3956     -0.0000    -14.4641    -16.6199       90.00
        22        14.4369    -33.1645      4.6133     -4.7048       91.78
        23        -1.1147    -14.3431      0.7115     -4.9154      160.29
        24        45.4375     22.9396     -7.9560     20.1403       87.69
        25        -0.0657      0.0000     -4.7644     -1.6100       90.00
        26         1.3559      0.0000      0.9833      0.7797       90.00
        27         3.9035     -3.0477     -6.8315     -1.9919      119.37
        28        -3.9457     16.0458      6.5879      6.2293       60.26
        29        67.9569    -38.0863    -62.5026    -10.8774       95.89
        30        95.0936     67.0581     18.6420     60.2646       84.34
        31       -35.9767      0.0001     15.5501     -6.8088      179.05
        32       -57.8001     80.0894     43.5536     21.9476       87.11
        33        -0.4483      0.0002     -0.5104     -0.3195      152.57
        34       -68.3021      0.0000    -44.0874    -37.4631       90.00
        35        12.7052     -0.0000    -15.4646     -0.9198       90.00
        36        36.2944      0.0000     68.6143     34.9696       90.00
        37         1.2141      5.9675     10.2264      5.8027       65.30
        38        -0.0030      4.0909      4.7986      2.9622       33.96
        39       -16.4712      0.0000    -12.9275     -9.7996       90.00
        40         1.7140     -1.8947     11.5902      3.8031       70.50
        41         2.9517     -0.0000     -2.0221      0.3099       90.00
        42        -3.0539     14.3084      0.6359      3.9635       43.26
        43       -20.3550     -0.0000     15.9886     -1.4555       90.00
        44         9.0476      0.0000     -0.3094      2.9127       90.00
        45        29.1445    -29.1502    -20.6832     -6.8963       90.98
        46        -1.0406     -0.0000     -0.4055     -0.4821       90.00
        47        -0.6874     47.7527     23.4552     23.5068       22.94
        48        20.4110     10.2331      0.1366     10.2602       13.20
        49         1.2600      0.0000     -0.3639      0.2987       90.00
        50         0.7889      0.0000     -0.7067      0.0274       90.00
 1/2[<0|r|b>*<b|rxdel|0> + (<0|rxdel|b>*<b|r|0>)*]
 Rotatory Strengths (R) in cgs (10**-40 erg-esu-cm/Gauss)
       state          XX          YY          ZZ     R(length)
         1       -71.9841     -0.0000    -16.3312    -29.4384
         2         9.5650     -0.0000      3.4502      4.3384
         3         0.0000      7.5727      0.0000      2.5242
         4        -5.4624     -0.0000      1.8192     -1.2144
         5        -0.0000     -8.5356     -0.0000     -2.8452
         6        -0.0000    -30.0817      0.0000    -10.0272
         7       -15.5285     -0.0000     49.5993     11.3569
         8         0.0000    -51.9121     -0.0000    -17.3040
         9         0.0000     -1.9172      0.0000     -0.6391
        10        -3.3543      0.0000      9.4771      2.0409
        11         0.0000      0.0223      0.0000      0.0074
        12        60.2448     -0.0000     -0.4692     19.9252
        13       -48.9820      0.0000     -0.0541    -16.3454
        14        -0.0000     -1.4378     -0.0000     -0.4793
        15        23.7860      0.0000    -11.5774      4.0695
        16         0.0000    -27.7996     -0.0000     -9.2665
        17         0.0024      0.1185     -0.0001      0.0402
        18        29.1881     -0.0002     -1.6060      9.1940
        19        -0.0000     -0.0552     -0.0000     -0.0184
        20       -16.4051      0.0000     -6.1227     -7.5093
        21        -0.0000    -44.5795     -0.0000    -14.8598
        22       -27.7014     -0.0000      8.6460     -6.3518
        23       -13.8265     -0.0000     -1.4388     -5.0884
        24       -24.1322     -0.0000     77.8929     17.9202
        25         0.0000     -6.7494      0.0000     -2.2498
        26        -0.0000      2.9227      0.0000      0.9742
        27        -9.0429     -0.0000      0.6385     -2.8014
        28        29.5878     -0.0000     -5.4626      8.0417
        29      -132.6932     -0.0000     69.9240    -20.9231
        30        62.5840     -0.0000    138.2925     66.9588
        31         0.0001    -17.8023      0.0000     -5.9341
        32       106.4011     -0.0000    -38.6022     22.5996
        33         0.0003     -1.6353     -0.0001     -0.5450
        34         0.0000   -115.1380      0.0000    -38.3793
        35        -0.0000     -2.5496      0.0000     -0.8499
        36         0.0000    101.7799      0.0000     33.9266
        37        17.5865     -0.0000      4.5927      7.3931
        38         9.3969      0.0000     -2.8871      2.1699
        39         0.0000    -27.2134     -0.0000     -9.0711
        40         9.1233     -0.0000      2.2954      3.8062
        41        -0.0000      0.8528      0.0000      0.2843
        42         2.7038     -0.0000      8.6144      3.7727
        43        -0.0000     -4.5193      0.0000     -1.5064
        44         0.0000      4.8155     -0.0000      1.6052
        45       -71.0924     -0.0000     52.0113     -6.3604
        46        -0.0000     -1.7503      0.0000     -0.5834
        47        73.8670      0.0000     -4.2769     23.1967
        48         4.0816      0.0000     28.0582     10.7133
        49         0.0000      1.2396      0.0000      0.4132
        50         0.0000      0.1308      0.0000      0.0436
  1/2[<0|del|b>*<b|r|0> + (<0|r|b>*<b|del|0>)*] (Au)
       state          X           Y           Z        Dip. S.   Osc.(frdel)
         1        -1.7549      0.0000     -0.0001      1.7550      1.1700
         2        -0.0004     -0.0000      0.0001      0.0003      0.0002
         3        -0.0000     -0.0471      0.0000      0.0471      0.0314
         4        -0.0175     -0.0000     -0.0001      0.0176      0.0117
         5        -0.0000     -0.0073     -0.0000      0.0073      0.0049
         6        -0.0000     -0.0362      0.0000      0.0362      0.0241
         7        -0.0412     -0.0000     -0.0004      0.0416      0.0277
         8        -0.0000     -0.1269     -0.0000      0.1269      0.0846
         9        -0.0000     -0.0000     -0.0000      0.0000      0.0000
        10        -0.0005     -0.0000     -0.0000      0.0005      0.0004
        11        -0.0000     -0.0000     -0.0000      0.0000      0.0000
        12        -0.0099     -0.0000     -0.0002      0.0101      0.0067
        13        -0.2347     -0.0000     -0.0000      0.2347      0.1565
        14        -0.0000     -0.0004     -0.0000      0.0004      0.0003
        15        -0.0750     -0.0000     -0.0001      0.0751      0.0501
        16        -0.0000     -0.2585     -0.0000      0.2585      0.1723
        17        -0.0000     -0.0645     -0.0000      0.0645      0.0430
        18        -0.1081     -0.0000     -0.0000      0.1081      0.0720
        19        -0.0000     -0.0018     -0.0000      0.0018      0.0012
        20        -0.0235     -0.0000     -0.0000      0.0235      0.0157
        21        -0.0000     -0.0667     -0.0000      0.0667      0.0444
        22        -0.1836     -0.0000     -0.0001      0.1837      0.1225
        23        -0.0149     -0.0000     -0.0004      0.0153      0.0102
        24        -0.5130     -0.0000     -0.0014      0.5144      0.3429
        25        -0.0000     -0.0089     -0.0000      0.0089      0.0060
        26        -0.0000     -0.0104     -0.0000      0.0104      0.0069
        27        -0.0037     -0.0000     -0.0004      0.0041      0.0027
        28        -0.0041     -0.0000     -0.0020      0.0061      0.0041
        29        -0.0340     -0.0000     -0.0027      0.0367      0.0245
        30        -0.2045     -0.0000     -0.0010      0.2055      0.1370
        31        -0.0000     -0.0137     -0.0000      0.0137      0.0091
        32        -0.5054     -0.0000     -0.0004      0.5058      0.3372
        33        -0.0000     -0.0000     -0.0000      0.0000      0.0000
        34        -0.0000     -0.1326     -0.0000      0.1326      0.0884
        35        -0.0000     -0.0428     -0.0000      0.0428      0.0286
        36        -0.0000     -0.0573     -0.0000      0.0573      0.0382
        37        -0.0207     -0.0000     -0.0001      0.0208      0.0139
        38        -0.0013     -0.0000     -0.0000      0.0013      0.0009
        39        -0.0000     -0.0128      0.0000      0.0128      0.0085
        40        -0.0044     -0.0000     -0.0000      0.0045      0.0030
        41        -0.0000     -0.0164     -0.0000      0.0164      0.0109
        42        -0.0001     -0.0000     -0.0023      0.0025      0.0016
        43        -0.0000     -0.0232     -0.0000      0.0232      0.0155
        44        -0.0000     -0.0011     -0.0000      0.0011      0.0007
        45        -0.4478     -0.0000     -0.0008      0.4486      0.2991
        46        -0.0000     -0.0002     -0.0000      0.0002      0.0002
        47        -0.0079     -0.0000     -0.0004      0.0082      0.0055
        48        -0.0003     -0.0000     -0.0007      0.0010      0.0007
        49        -0.0000     -0.0005     -0.0000      0.0005      0.0003
        50         0.0000     -0.0003     -0.0000      0.0003      0.0002

 Excitation energies and oscillator strengths:
 
 Excited State   1:      Singlet-A      3.1909 eV  388.56 nm  f=1.2089  <S**2>=0.000
      89 -> 90         0.70547
 This state for optimization and/or second-order correction.
 Total Energy, E(TD-HF/TD-DFT) =  -1641.15702167    
 Copying the excited state density for this state as the 1-particle RhoCI density.
 
 Excited State   2:      Singlet-A      3.9233 eV  316.02 nm  f=0.0004  <S**2>=0.000
      89 -> 91         0.70247
 
 Excited State   3:      Singlet-A      4.1170 eV  301.15 nm  f=0.0345  <S**2>=0.000
      88 -> 90         0.66470
      89 -> 92         0.20872
 
 Excited State   4:      Singlet-A      4.2237 eV  293.54 nm  f=0.0108  <S**2>=0.000
      87 -> 90         0.67292
      89 -> 93         0.19451
 
 Excited State   5:      Singlet-A      4.5386 eV  273.18 nm  f=0.0056  <S**2>=0.000
      86 -> 90         0.67485
      89 -> 92        -0.10645
      89 -> 94        -0.14790
 
 Excited State   6:      Singlet-A      4.5842 eV  270.46 nm  f=0.0220  <S**2>=0.000
      87 -> 94        -0.10545
      88 -> 90        -0.20971
      89 -> 92         0.64703
 
 Excited State   7:      Singlet-A      4.6791 eV  264.98 nm  f=0.0275  <S**2>=0.000
      87 -> 90        -0.19245
      88 -> 94        -0.10864
      89 -> 93         0.65738
 
 Excited State   8:      Singlet-A      4.9572 eV  250.11 nm  f=0.0824  <S**2>=0.000
      86 -> 90         0.11795
      87 -> 92         0.11420
      88 -> 93         0.10797
      89 -> 94         0.65474
 
 Excited State   9:      Singlet-A      5.0606 eV  245.00 nm  f=0.0000  <S**2>=0.000
      86 -> 91         0.15785
      87 -> 96        -0.10367
      88 -> 91         0.62404
      89 -> 96         0.25149
 
 Excited State  10:      Singlet-A      5.1370 eV  241.36 nm  f=0.0005  <S**2>=0.000
      85 -> 90        -0.15856
      88 -> 92         0.10677
      89 -> 95         0.65803
 
 Excited State  11:      Singlet-A      5.2098 eV  237.98 nm  f=0.0000  <S**2>=0.000
      86 -> 91         0.23042
      88 -> 91        -0.29527
      89 -> 96         0.59740
 
 Excited State  12:      Singlet-A      5.2471 eV  236.29 nm  f=0.0068  <S**2>=0.000
      87 -> 91         0.68861
      88 -> 96        -0.11892
 
 Excited State  13:      Singlet-A      5.3718 eV  230.81 nm  f=0.1583  <S**2>=0.000
      85 -> 90         0.60676
      86 -> 92        -0.10468
      87 -> 93         0.15446
      87 -> 95        -0.11811
      88 -> 92         0.20049
      88 -> 94        -0.16439
 
 Excited State  14:      Singlet-A      5.5203 eV  224.60 nm  f=0.0002  <S**2>=0.000
      86 -> 91         0.64319
      89 -> 96        -0.27230
 
 Excited State  15:      Singlet-A      5.7817 eV  214.44 nm  f=0.0542  <S**2>=0.000
      85 -> 90         0.26589
      85 -> 93         0.10298
      86 -> 92         0.42655
      86 -> 94         0.18060
      87 -> 95         0.15470
      88 -> 92        -0.16598
      88 -> 94         0.31438
      89 -> 93         0.10678
      89 -> 95         0.15943
 
 Excited State  16:      Singlet-A      5.8281 eV  212.73 nm  f=0.1762  <S**2>=0.000
      84 -> 90        -0.27577
      85 -> 92         0.11451
      86 -> 93         0.34030
      86 -> 95         0.15727
      87 -> 92        -0.23022
      87 -> 94         0.24599
      88 -> 93        -0.25618
      88 -> 95         0.16430
      89 -> 94         0.17830
 
 Excited State  17:      Singlet-A      5.8698 eV  211.22 nm  f=0.0451  <S**2>=0.000
      84 -> 90         0.52900
      86 -> 93         0.29171
      87 -> 94         0.22408
      88 -> 93         0.14731
      88 -> 95         0.20372
 
 Excited State  18:      Singlet-A      5.8708 eV  211.19 nm  f=0.0790  <S**2>=0.000
      83 -> 90        -0.21836
      86 -> 92         0.19732
      86 -> 94        -0.14576
      88 -> 92         0.57138
      88 -> 94         0.15958
      89 -> 95        -0.10988
 
 Excited State  19:      Singlet-A      5.9967 eV  206.75 nm  f=0.0013  <S**2>=0.000
      87 -> 92        -0.47186
      88 -> 93         0.51474
 
 Excited State  20:      Singlet-A      6.0231 eV  205.85 nm  f=0.0179  <S**2>=0.000
      83 -> 90         0.51074
      86 -> 94         0.12880
      87 -> 93        -0.37953
      88 -> 92         0.24525
 
 Excited State  21:      Singlet-A      6.1196 eV  202.60 nm  f=0.0397  <S**2>=0.000
      84 -> 90        -0.33789
      86 -> 93         0.17208
      86 -> 95        -0.10237
      87 -> 92         0.42314
      87 -> 94         0.18311
      88 -> 93         0.32357
 
 Excited State  22:      Singlet-A      6.1541 eV  201.47 nm  f=0.1274  <S**2>=0.000
      83 -> 90         0.40696
      86 -> 92         0.14557
      86 -> 94        -0.15392
      87 -> 93         0.50413
      88 -> 94         0.14308
 
 Excited State  23:      Singlet-A      6.2368 eV  198.79 nm  f=0.0103  <S**2>=0.000
      85 -> 91         0.14726
      89 -> 98         0.68023
 
 Excited State  24:      Singlet-A      6.3067 eV  196.59 nm  f=0.3578  <S**2>=0.000
      86 -> 92        -0.35078
      87 -> 95        -0.25132
      88 -> 94         0.53902
 
 Excited State  25:      Singlet-A      6.3188 eV  196.21 nm  f=0.0083  <S**2>=0.000
      89 -> 97         0.67935
 
 Excited State  26:      Singlet-A      6.3832 eV  194.24 nm  f=0.0086  <S**2>=0.000
      87 -> 94        -0.47529
      88 -> 95         0.49116
      89 -> 97         0.11381
 
 Excited State  27:      Singlet-A      6.4034 eV  193.62 nm  f=0.0025  <S**2>=0.000
      85 -> 91         0.64255
      86 -> 96        -0.23187
      89 -> 98        -0.13178
 
 Excited State  28:      Singlet-A      6.4854 eV  191.17 nm  f=0.0040  <S**2>=0.000
      82 -> 90         0.59843
      88 -> 96        -0.34393
 
 Excited State  29:      Singlet-A      6.5398 eV  189.59 nm  f=0.0255  <S**2>=0.000
      82 -> 90         0.34159
      86 -> 92         0.10033
      87 -> 95        -0.16193
      88 -> 96         0.54905
 
 Excited State  30:      Singlet-A      6.5509 eV  189.26 nm  f=0.1436  <S**2>=0.000
      85 -> 93         0.13153
      86 -> 92        -0.28250
      86 -> 94         0.28741
      87 -> 93         0.11441
      87 -> 95         0.47411
      88 -> 96         0.19282
 
 Excited State  31:      Singlet-A      6.5527 eV  189.21 nm  f=0.0079  <S**2>=0.000
      85 -> 92        -0.19129
      86 -> 93         0.48104
      87 -> 94        -0.26799
      88 -> 95        -0.35560
 
 Excited State  32:      Singlet-A      6.6647 eV  186.03 nm  f=0.3482  <S**2>=0.000
      84 -> 92        -0.12446
      85 -> 90        -0.11605
      86 -> 92         0.10671
      86 -> 94         0.53067
      87 -> 93         0.16691
      87 -> 95        -0.30600
 
 Excited State  33:      Singlet-A      6.6694 eV  185.90 nm  f=0.0000  <S**2>=0.000
      84 -> 91         0.13717
      87 -> 96         0.67268
      88 -> 91         0.11453
 
 Excited State  34:      Singlet-A      6.7429 eV  183.87 nm  f=0.0906  <S**2>=0.000
      81 -> 90        -0.41175
      86 -> 95         0.51496
 
 Excited State  35:      Singlet-A      6.8010 eV  182.30 nm  f=0.0264  <S**2>=0.000
      79 -> 90         0.30232
      81 -> 90        -0.37954
      84 -> 91         0.40426
      86 -> 95        -0.26092
 
 Excited State  36:      Singlet-A      6.8132 eV  181.98 nm  f=0.0371  <S**2>=0.000
      79 -> 90        -0.20119
      81 -> 90         0.22214
      84 -> 91         0.52945
      86 -> 95         0.27004
      87 -> 96        -0.13435
 
 Excited State  37:      Singlet-A      6.8754 eV  180.33 nm  f=0.0155  <S**2>=0.000
      80 -> 90         0.67110
      86 -> 96        -0.18419
 
 Excited State  38:      Singlet-A      6.8790 eV  180.23 nm  f=0.0011  <S**2>=0.000
      80 -> 90         0.19452
      83 -> 91        -0.16994
      85 -> 91         0.19167
      86 -> 96         0.60781
      88 -> 96        -0.10430
 
 Excited State  39:      Singlet-A      6.9577 eV  178.20 nm  f=0.0079  <S**2>=0.000
      78 -> 90         0.60446
      79 -> 90         0.28215
      81 -> 90         0.15438
 
 Excited State  40:      Singlet-A      6.9799 eV  177.63 nm  f=0.0031  <S**2>=0.000
      83 -> 91         0.65278
      84 -> 96         0.12073
      85 -> 91         0.11562
      86 -> 96         0.15652
 
 Excited State  41:      Singlet-A      7.0124 eV  176.81 nm  f=0.0100  <S**2>=0.000
      76 -> 90        -0.36113
      78 -> 90        -0.30294
      79 -> 90         0.43864
      81 -> 90         0.19525
 
 Excited State  42:      Singlet-A      7.0871 eV  174.94 nm  f=0.0017  <S**2>=0.000
      89 -> 99         0.69054
 
 Excited State  43:      Singlet-A      7.1016 eV  174.59 nm  f=0.0160  <S**2>=0.000
      76 -> 90        -0.26060
      78 -> 90         0.10438
      79 -> 90        -0.12112
      83 -> 94        -0.10293
      84 -> 95         0.10778
      85 -> 92         0.55667
      87 -> 94        -0.12740
      88 -> 95        -0.13073
 
 Excited State  44:      Singlet-A      7.1159 eV  174.24 nm  f=0.0004  <S**2>=0.000
      71 -> 90         0.11398
      76 -> 90         0.45503
      78 -> 90        -0.12538
      79 -> 90         0.23273
      81 -> 90         0.20202
      85 -> 92         0.29064
      89 ->100         0.15691
 
 Excited State  45:      Singlet-A      7.1524 eV  173.35 nm  f=0.2978  <S**2>=0.000
      84 -> 94         0.15048
      85 -> 93         0.62314
      87 -> 95        -0.15117
      88 -> 97        -0.11557
 
 Excited State  46:      Singlet-A      7.1605 eV  173.15 nm  f=0.0002  <S**2>=0.000
      76 -> 90        -0.19410
      86 -> 98        -0.10925
      89 ->100         0.65092
 
 Excited State  47:      Singlet-A      7.1821 eV  172.63 nm  f=0.0056  <S**2>=0.000
      77 -> 90         0.68463
 
 Excited State  48:      Singlet-A      7.3253 eV  169.26 nm  f=0.0013  <S**2>=0.000
      83 -> 93         0.13758
      84 -> 92        -0.23017
      88 -> 97         0.62835
 
 Excited State  49:      Singlet-A      7.3520 eV  168.64 nm  f=0.0005  <S**2>=0.000
      75 -> 90         0.35394
      83 -> 92         0.22888
      84 -> 93        -0.23819
      85 -> 94         0.48044
 
 Excited State  50:      Singlet-A      7.3553 eV  168.56 nm  f=0.0003  <S**2>=0.000
      75 -> 90         0.59044
      83 -> 92        -0.14601
      84 -> 93         0.15695
      85 -> 94        -0.28454
 SavETr:  write IOETrn=   770 NScale= 10 NData=  16 NLR=1 NState=   50 LETran=     910.

 **********************************************************************

            Population analysis using the SCF Density.

 **********************************************************************

 Orbital symmetries:
       Occupied  (A) (A) (A) (A) (A) (A) (A) (A) (A) (A) (A) (A)
                 (A) (A) (A) (A) (A) (A) (A) (A) (A) (A) (A) (A)
                 (A) (A) (A) (A) (A) (A) (A) (A) (A) (A) (A) (A)
                 (A) (A) (A) (A) (A) (A) (A) (A) (A) (A) (A) (A)
                 (A) (A) (A) (A) (A) (A) (A) (A) (A) (A) (A) (A)
                 (A) (A) (A) (A) (A) (A) (A) (A) (A) (A) (A) (A)
                 (A) (A) (A) (A) (A) (A) (A) (A) (A) (A) (A) (A)
                 (A) (A) (A) (A) (A)
       Virtual   (A) (A) (A) (A) (A) (A) (A) (A) (A) (A) (A) (A)
                 (A) (A) (A) (A) (A) (A) (A) (A) (A) (A) (A) (A)
                 (A) (A) (A) (A) (A) (A) (A) (A) (A) (A) (A) (A)
                 (A) (A) (A) (A) (A) (A) (A) (A) (A) (A) (A) (A)
                 (A) (A) (A) (A) (A) (A) (A) (A) (A) (A) (A) (A)
                 (A) (A) (A) (A) (A) (A) (A) (A) (A) (A) (A) (A)
                 (A) (A) (A) (A) (A) (A) (A) (A) (A) (A) (A) (A)
                 (A) (A) (A) (A) (A) (A) (A) (A) (A) (A) (A) (A)
                 (A) (A) (A) (A) (A) (A) (A) (A) (A) (A) (A) (A)
                 (A) (A) (A) (A) (A) (A) (A) (A) (A) (A) (A) (A)
                 (A) (A) (A) (A) (A) (A) (A) (A) (A) (A) (A) (A)
                 (A) (A) (A) (A) (A) (A) (A) (A) (A) (A) (A) (A)
                 (A) (A) (A) (A) (A) (A) (A) (A) (A) (A) (A) (A)
                 (A) (A) (A) (A) (A) (A) (A) (A) (A) (A) (A) (A)
                 (A) (A) (A) (A) (A) (A) (A) (A) (A) (A) (A) (A)
                 (A) (A) (A) (A) (A) (A) (A) (A) (A) (A) (A) (A)
                 (A) (A) (A) (A) (A) (A) (A) (A) (A) (A) (A) (A)
                 (A) (A) (A) (A) (A) (A) (A) (A) (A) (A) (A) (A)
                 (A) (A) (A) (A) (A) (A) (A) (A) (A) (A) (A) (A)
                 (A) (A) (A) (A) (A) (A) (A) (A) (A) (A) (A) (A)
                 (A) (A) (A) (A) (A) (A) (A) (A) (A) (A) (A) (A)
                 (A) (A) (A) (A) (A) (A) (A) (A) (A) (A) (A) (A)
                 (A) (A) (A) (A) (A) (A) (A) (A) (A) (A) (A) (A)
                 (A) (A) (A) (A) (A) (A) (A) (A) (A) (A) (A) (A)
                 (A) (A) (A) (A) (A) (A) (A) (A) (A) (A) (A) (A)
                 (A) (A) (A) (A) (A) (A) (A) (A) (A) (A) (A) (A)
                 (A) (A) (A) (A) (A) (A) (A) (A) (A) (A) (A) (A)
                 (A) (A) (A) (A) (A) (A) (A) (A) (A) (A) (A) (A)
                 (A) (A) (A) (A) (A) (A) (A) (A) (A) (A) (A) (A)
                 (A) (A) (A) (A) (A) (A) (A) (A) (A) (A) (A)
 The electronic state is 1-A.
 Alpha  occ. eigenvalues --  -88.93942 -88.93942 -14.42394 -14.42394 -10.30691
 Alpha  occ. eigenvalues --  -10.30691 -10.25820 -10.25820 -10.24531 -10.24530
 Alpha  occ. eigenvalues --  -10.23877 -10.23877 -10.21747 -10.21222 -10.21222
 Alpha  occ. eigenvalues --  -10.20897 -10.20896 -10.20364 -10.20364 -10.20160
 Alpha  occ. eigenvalues --  -10.20160 -10.18426 -10.18426  -8.00062  -8.00061
 Alpha  occ. eigenvalues --   -5.96515  -5.96515  -5.96139  -5.96137  -5.95657
 Alpha  occ. eigenvalues --   -5.95655  -1.02457  -1.02118  -0.88024  -0.87897
 Alpha  occ. eigenvalues --   -0.86153  -0.84012  -0.80744  -0.77853  -0.77480
 Alpha  occ. eigenvalues --   -0.76471  -0.75207  -0.74491  -0.72075  -0.66361
 Alpha  occ. eigenvalues --   -0.66132  -0.65833  -0.63349  -0.61451  -0.61426
 Alpha  occ. eigenvalues --   -0.59240  -0.56933  -0.53642  -0.53025  -0.52843
 Alpha  occ. eigenvalues --   -0.50982  -0.50166  -0.48065  -0.47975  -0.47199
 Alpha  occ. eigenvalues --   -0.46342  -0.46088  -0.45819  -0.45710  -0.43856
 Alpha  occ. eigenvalues --   -0.43566  -0.43533  -0.42241  -0.40701  -0.40463
 Alpha  occ. eigenvalues --   -0.39773  -0.39379  -0.38426  -0.37959  -0.37601
 Alpha  occ. eigenvalues --   -0.37394  -0.37031  -0.36242  -0.35970  -0.35844
 Alpha  occ. eigenvalues --   -0.35266  -0.34851  -0.32485  -0.31924  -0.29880
 Alpha  occ. eigenvalues --   -0.26308  -0.25615  -0.25161  -0.20955
 Alpha virt. eigenvalues --   -0.07943  -0.03242  -0.02234  -0.01817  -0.01008
 Alpha virt. eigenvalues --   -0.00092   0.01634   0.04224   0.05335   0.07802
 Alpha virt. eigenvalues --    0.08295   0.10928   0.11029   0.12221   0.12693
 Alpha virt. eigenvalues --    0.12813   0.12902   0.14102   0.14265   0.14501
 Alpha virt. eigenvalues --    0.15213   0.15434   0.16031   0.16095   0.16525
 Alpha virt. eigenvalues --    0.17528   0.17780   0.18205   0.18357   0.19093
 Alpha virt. eigenvalues --    0.19098   0.19996   0.20094   0.20676   0.21603
 Alpha virt. eigenvalues --    0.22454   0.22964   0.24429   0.24653   0.26083
 Alpha virt. eigenvalues --    0.26742   0.27682   0.28680   0.30711   0.30747
 Alpha virt. eigenvalues --    0.31071   0.32129   0.33558   0.34223   0.34525
 Alpha virt. eigenvalues --    0.36691   0.36883   0.37926   0.38434   0.41010
 Alpha virt. eigenvalues --    0.42448   0.45126   0.47839   0.48095   0.48332
 Alpha virt. eigenvalues --    0.49027   0.49240   0.49634   0.50796   0.52247
 Alpha virt. eigenvalues --    0.52422   0.52775   0.53173   0.54141   0.54790
 Alpha virt. eigenvalues --    0.55269   0.55583   0.56465   0.56522   0.56998
 Alpha virt. eigenvalues --    0.57200   0.57778   0.57861   0.58260   0.59141
 Alpha virt. eigenvalues --    0.59682   0.59710   0.60035   0.60153   0.60321
 Alpha virt. eigenvalues --    0.60836   0.60898   0.61692   0.63277   0.63623
 Alpha virt. eigenvalues --    0.63814   0.65535   0.65997   0.67645   0.68304
 Alpha virt. eigenvalues --    0.69568   0.70904   0.71903   0.72501   0.72720
 Alpha virt. eigenvalues --    0.74343   0.76844   0.78082   0.78791   0.79995
[...]
    25  H   -0.031277   0.004069   0.000637   0.000000   0.000000   0.000000
    26  H    0.379700  -0.037830   0.004716   0.000000   0.000000   0.000000
    27  H   -0.036782   0.375837  -0.035345  -0.000000  -0.000000   0.000000
    28  H    0.003947  -0.034847   0.371004  -0.000000   0.000000   0.000000
    29  H    0.000000   0.000000   0.000000   0.378238  -0.031277   0.004069
    30  H    0.000000   0.000000   0.000000  -0.039312   0.379700  -0.037830
    31  H   -0.000000   0.000000  -0.000000   0.004560  -0.036782   0.375837
    32  H    0.000000   0.000000   0.000000   0.000321   0.003947  -0.034847
    33  H    0.000000  -0.000008   0.000145   0.000000  -0.000000  -0.000000
    34  H   -0.000010   0.000199   0.004021  -0.000000  -0.000000   0.000000
    35  H    0.000003  -0.000069   0.001170   0.000000  -0.000000   0.000000
    36  H   -0.000000   0.000001   0.000013  -0.000000  -0.000000  -0.000000
    37  H   -0.000000   0.000000  -0.000063   0.000000   0.000000   0.000000
    38  H   -0.000000  -0.000000   0.000000   0.000002   0.000000  -0.000008
    39  H   -0.000000   0.000000  -0.000000  -0.000002  -0.000010   0.000199
    40  H   -0.000000   0.000000   0.000000  -0.000004   0.000003  -0.000069
    41  H   -0.000000  -0.000000  -0.000000  -0.000000  -0.000000   0.000001
    42  H    0.000000   0.000000  -0.000000   0.000000  -0.000000   0.000000
              19         20         21         22         23         24
     1  C    0.000001  -0.045623  -0.000298   0.000451  -0.000016  -0.030145
     2  C   -0.000230  -0.000131  -0.001701  -0.000133  -0.001700   0.376493
     3  C    0.005806   0.000451  -0.000016  -0.045622  -0.000298  -0.030143
     4  N   -0.064569   0.000004   0.000003   0.270378  -0.053275  -0.010117
     5  S   -0.000001   0.004059  -0.000104  -0.000001  -0.000001   0.003153
     6  C   -0.000000   0.005742  -0.000337   0.000000  -0.000000   0.000003
     7  C    0.000000  -0.034561  -0.001135   0.000000   0.000000  -0.000073
     8  N   -0.000000   0.270378  -0.053278   0.000004   0.000003  -0.010117
     9  S    0.006683  -0.000001  -0.000001   0.004059  -0.000104   0.003153
    10  C   -0.070743   0.000000  -0.000000   0.005742  -0.000337   0.000003
    11  C    0.509815   0.000000   0.000000  -0.034560  -0.001135  -0.000073
    12  C   -0.000000  -0.000044  -0.000000   0.000000  -0.000000   0.000002
    13  C   -0.000000  -0.000008   0.000001   0.000000   0.000000  -0.000000
    14  C    0.000000   0.000158  -0.000005   0.000000  -0.000000   0.000000
    15  C   -0.000000  -0.001799  -0.000334   0.000000  -0.000000  -0.000002
    16  C   -0.043854   0.000000  -0.000000  -0.000044  -0.000000   0.000002
    17  C   -0.041329   0.000000   0.000000  -0.000008   0.000001  -0.000000
    18  C    0.521780   0.000000  -0.000000   0.000158  -0.000005   0.000000
    19  C    4.930955   0.000000  -0.000000  -0.001799  -0.000333  -0.000002
    20  C    0.000000   4.824339   0.367251  -0.000003  -0.000028   0.004571
    21  C   -0.000000   0.367251   4.943143  -0.000028   0.000004  -0.000502
    22  C   -0.001799  -0.000003  -0.000028   4.824338   0.367249   0.004571
    23  C   -0.000333  -0.000028   0.000004   0.367249   4.943145  -0.000502
    24  H   -0.000002   0.004571  -0.000502   0.004571  -0.000502   0.509514
    25  H    0.000000   0.000001  -0.000000   0.000000  -0.000000   0.000000
    26  H    0.000000  -0.000000   0.000000  -0.000000   0.000000   0.000000
    27  H   -0.000000   0.000002  -0.000001  -0.000000   0.000000  -0.000000
    28  H    0.000000   0.001259  -0.000050   0.000000  -0.000000  -0.000000
    29  H    0.000637   0.000000  -0.000000   0.000001  -0.000000   0.000000
    30  H    0.004716  -0.000000   0.000000  -0.000000   0.000000   0.000000
    31  H   -0.035344  -0.000000   0.000000   0.000002  -0.000001  -0.000000
    32  H    0.371004   0.000000  -0.000000   0.001259  -0.000050  -0.000000
    33  H    0.000000   0.388960  -0.039649   0.000029   0.000054  -0.000034
    34  H   -0.000000   0.389804  -0.039000  -0.000000  -0.000000   0.000041
    35  H    0.000000  -0.031213   0.388136   0.000000  -0.000000  -0.000077
    36  H   -0.000000  -0.031695   0.387982  -0.000049  -0.000004   0.000973
    37  H   -0.000000  -0.026878   0.380519   0.000001   0.000000   0.000015
    38  H    0.000145   0.000029   0.000054   0.388961  -0.039649  -0.000035
    39  H    0.004021  -0.000000  -0.000000   0.389804  -0.039001   0.000042
    40  H    0.001170   0.000000  -0.000000  -0.031213   0.388136  -0.000077
    41  H    0.000013  -0.000049  -0.000004  -0.031696   0.387983   0.000974
    42  H   -0.000062   0.000001   0.000000  -0.026878   0.380518   0.000015
              25         26         27         28         29         30
     1  C    0.000021  -0.000000   0.000002  -0.000135   0.000000   0.000000
     2  C    0.000000  -0.000000  -0.000000   0.000004   0.000000  -0.000000
     3  C    0.000000   0.000000   0.000000  -0.000000   0.000021  -0.000000
     4  N    0.000000   0.000000  -0.000000  -0.000000  -0.000113   0.000002
     5  S   -0.002229  -0.000134   0.000018  -0.000272   0.000003   0.000000
     6  C   -0.040430   0.004909   0.000874   0.005454   0.000000   0.000000
     7  C    0.003145   0.000581   0.003243  -0.034751  -0.000000  -0.000000
     8  N   -0.000113   0.000002  -0.000097  -0.008009   0.000000   0.000000
     9  S    0.000003   0.000000  -0.000000   0.000000  -0.002229  -0.000134
    10  C    0.000000   0.000000  -0.000000   0.000000  -0.040430   0.004909
    11  C   -0.000000  -0.000000   0.000000   0.000000   0.003145   0.000581
    12  C    0.378238  -0.039312   0.004560   0.000321   0.000000   0.000000
    13  C   -0.031277   0.379700  -0.036782   0.003947   0.000000   0.000000
    14  C    0.004069  -0.037830   0.375837  -0.034847   0.000000   0.000000
    15  C    0.000637   0.004716  -0.035345   0.371004   0.000000   0.000000
    16  C    0.000000   0.000000  -0.000000  -0.000000   0.378238  -0.039312
    17  C    0.000000   0.000000  -0.000000   0.000000  -0.031277   0.379700
    18  C    0.000000   0.000000   0.000000   0.000000   0.004069  -0.037830
    19  C    0.000000   0.000000  -0.000000   0.000000   0.000637   0.004716
    20  C    0.000001  -0.000000   0.000002   0.001259   0.000000  -0.000000
    21  C   -0.000000   0.000000  -0.000001  -0.000050  -0.000000   0.000000
    22  C    0.000000  -0.000000  -0.000000   0.000000   0.000001  -0.000000
    23  C   -0.000000   0.000000   0.000000  -0.000000  -0.000000   0.000000
    24  H    0.000000   0.000000  -0.000000  -0.000000   0.000000   0.000000
    25  H    0.545825  -0.005211  -0.000148   0.000012   0.000000  -0.000000
    26  H   -0.005211   0.567172  -0.005383  -0.000142  -0.000000  -0.000000
    27  H   -0.000148  -0.005383   0.565140  -0.005300  -0.000000   0.000000
    28  H    0.000012  -0.000142  -0.005300   0.550291  -0.000000  -0.000000
    29  H    0.000000  -0.000000  -0.000000  -0.000000   0.545825  -0.005211
    30  H   -0.000000  -0.000000   0.000000  -0.000000  -0.005211   0.567172
    31  H   -0.000000   0.000000   0.000000   0.000000  -0.000148  -0.005383
    32  H   -0.000000  -0.000000   0.000000  -0.000000   0.000012  -0.000142
    33  H   -0.000000  -0.000000  -0.000000  -0.000005   0.000000  -0.000000
    34  H    0.000000  -0.000000   0.000005   0.001396   0.000000   0.000000
    35  H   -0.000000   0.000000  -0.000002   0.000840  -0.000000   0.000000
    36  H    0.000000  -0.000000   0.000000  -0.000031  -0.000000   0.000000
    37  H    0.000000  -0.000000   0.000000   0.000036  -0.000000  -0.000000
    38  H    0.000000  -0.000000   0.000000  -0.000000  -0.000000  -0.000000
    39  H    0.000000   0.000000  -0.000000  -0.000000   0.000000  -0.000000
    40  H   -0.000000   0.000000  -0.000000   0.000000  -0.000000   0.000000
    41  H   -0.000000   0.000000  -0.000000  -0.000000   0.000000  -0.000000
    42  H   -0.000000  -0.000000  -0.000000  -0.000000   0.000000  -0.000000
              31         32         33         34         35         36
     1  C    0.000000  -0.000000  -0.009340   0.005317  -0.000174   0.003136
     2  C   -0.000000   0.000004   0.004866  -0.000032   0.000045   0.000895
     3  C    0.000002  -0.000135   0.000564  -0.000018   0.000001  -0.000161
     4  N   -0.000097  -0.008009  -0.000016  -0.000000  -0.000000  -0.000002
     5  S   -0.000000   0.000000  -0.000059  -0.000226   0.000011  -0.000096
     6  C   -0.000000   0.000000  -0.000266   0.000154  -0.000115   0.000007
     7  C    0.000000   0.000000   0.004020  -0.007841   0.002643  -0.000162
     8  N   -0.000000  -0.000000  -0.032346  -0.032609  -0.004235  -0.004675
     9  S    0.000018  -0.000272  -0.000015   0.000000  -0.000000  -0.000001
    10  C    0.000874   0.005454   0.000000  -0.000000   0.000000   0.000000
    11  C    0.003243  -0.034750  -0.000000  -0.000000  -0.000000   0.000000
    12  C   -0.000000  -0.000000   0.000002  -0.000002  -0.000005  -0.000000
    13  C   -0.000000   0.000000   0.000000  -0.000010   0.000003  -0.000000
    14  C    0.000000   0.000000  -0.000008   0.000199  -0.000069   0.000001
    15  C   -0.000000   0.000000   0.000145   0.004021   0.001170   0.000013
    16  C    0.004560   0.000321   0.000000  -0.000000   0.000000  -0.000000
    17  C   -0.036782   0.003947  -0.000000  -0.000000  -0.000000  -0.000000
    18  C    0.375837  -0.034847  -0.000000   0.000000   0.000000  -0.000000
    19  C   -0.035344   0.371004   0.000000  -0.000000   0.000000  -0.000000
    20  C   -0.000000   0.000000   0.388960   0.389804  -0.031213  -0.031695
    21  C    0.000000  -0.000000  -0.039649  -0.039000   0.388136   0.387982
    22  C    0.000002   0.001259   0.000029  -0.000000   0.000000  -0.000049
    23  C   -0.000001  -0.000050   0.000054  -0.000000  -0.000000  -0.000004
    24  H   -0.000000  -0.000000  -0.000034   0.000041  -0.000077   0.000973
    25  H   -0.000000  -0.000000  -0.000000   0.000000  -0.000000   0.000000
    26  H    0.000000  -0.000000  -0.000000  -0.000000   0.000000  -0.000000
    27  H    0.000000   0.000000  -0.000000   0.000005  -0.000002   0.000000
    28  H    0.000000  -0.000000  -0.000005   0.001396   0.000840  -0.000031
    29  H   -0.000148   0.000012   0.000000   0.000000  -0.000000  -0.000000
    30  H   -0.005383  -0.000142  -0.000000   0.000000   0.000000   0.000000
    31  H    0.565139  -0.005300   0.000000  -0.000000  -0.000000  -0.000000
    32  H   -0.005300   0.550288  -0.000000  -0.000000   0.000000  -0.000000
    33  H    0.000000  -0.000000   0.551093  -0.027893   0.004399  -0.005204
    34  H   -0.000000  -0.000000  -0.027893   0.546362  -0.005231   0.004380
    35  H   -0.000000   0.000000   0.004399  -0.005231   0.564236  -0.029853
    36  H   -0.000000  -0.000000  -0.005204   0.004380  -0.029853   0.566556
    37  H   -0.000000  -0.000000  -0.001320  -0.001411  -0.026267  -0.026342
    38  H   -0.000000  -0.000005  -0.000165  -0.000000  -0.000001   0.000447
    39  H    0.000005   0.001396  -0.000000   0.000000  -0.000000   0.000000
    40  H   -0.000002   0.000840  -0.000001  -0.000000   0.000000   0.000000
    41  H    0.000000  -0.000031   0.000447   0.000000   0.000000  -0.000005
    42  H    0.000000   0.000036  -0.000007  -0.000000   0.000000   0.000000
              37         38         39         40         41         42
     1  C   -0.000093   0.000564  -0.000018   0.000001  -0.000161   0.000001
     2  C   -0.000013   0.004869  -0.000032   0.000045   0.000893  -0.000013
     3  C    0.000001  -0.009338   0.005316  -0.000174   0.003135  -0.000093
     4  N   -0.000000  -0.032350  -0.032611  -0.004233  -0.004675   0.003803
     5  S    0.000003  -0.000015   0.000000  -0.000000  -0.000001   0.000000
     6  C    0.000006   0.000000  -0.000000   0.000000   0.000000   0.000000
     7  C   -0.000032  -0.000000  -0.000000  -0.000000   0.000000  -0.000000
     8  N    0.003804  -0.000016  -0.000000  -0.000000  -0.000002  -0.000000
     9  S    0.000000  -0.000059  -0.000226   0.000011  -0.000096   0.000003
    10  C    0.000000  -0.000266   0.000154  -0.000115   0.000007   0.000006
    11  C   -0.000000   0.004020  -0.007839   0.002641  -0.000162  -0.000032
    12  C    0.000000   0.000000  -0.000000   0.000000  -0.000000   0.000000
    13  C   -0.000000  -0.000000  -0.000000  -0.000000  -0.000000   0.000000
    14  C    0.000000  -0.000000   0.000000   0.000000  -0.000000   0.000000
    15  C   -0.000063   0.000000  -0.000000   0.000000  -0.000000  -0.000000
    16  C    0.000000   0.000002  -0.000002  -0.000004  -0.000000   0.000000
    17  C    0.000000   0.000000  -0.000010   0.000003  -0.000000  -0.000000
    18  C    0.000000  -0.000008   0.000199  -0.000069   0.000001   0.000000
    19  C   -0.000000   0.000145   0.004021   0.001170   0.000013  -0.000062
    20  C   -0.026878   0.000029  -0.000000   0.000000  -0.000049   0.000001
    21  C    0.380519   0.000054  -0.000000  -0.000000  -0.000004   0.000000
    22  C    0.000001   0.388961   0.389804  -0.031213  -0.031696  -0.026878
    23  C    0.000000  -0.039649  -0.039001   0.388136   0.387983   0.380518
    24  H    0.000015  -0.000035   0.000042  -0.000077   0.000974   0.000015
    25  H    0.000000   0.000000   0.000000  -0.000000  -0.000000  -0.000000
    26  H   -0.000000  -0.000000   0.000000   0.000000   0.000000  -0.000000
    27  H    0.000000   0.000000  -0.000000  -0.000000  -0.000000  -0.000000
    28  H    0.000036  -0.000000  -0.000000   0.000000  -0.000000  -0.000000
    29  H   -0.000000  -0.000000   0.000000  -0.000000   0.000000   0.000000
    30  H   -0.000000  -0.000000  -0.000000   0.000000  -0.000000  -0.000000
    31  H   -0.000000  -0.000000   0.000005  -0.000002   0.000000   0.000000
    32  H   -0.000000  -0.000005   0.001396   0.000840  -0.000031   0.000036
    33  H   -0.001320  -0.000165  -0.000000  -0.000001   0.000447  -0.000007
    34  H   -0.001411  -0.000000   0.000000  -0.000000   0.000000  -0.000000
    35  H   -0.026267  -0.000001  -0.000000   0.000000   0.000000   0.000000
    36  H   -0.026342   0.000447   0.000000   0.000000  -0.000005   0.000000
    37  H    0.560402  -0.000007  -0.000000   0.000000   0.000000  -0.000000
    38  H   -0.000007   0.551094  -0.027892   0.004398  -0.005203  -0.001321
    39  H   -0.000000  -0.027892   0.546364  -0.005232   0.004380  -0.001410
    40  H    0.000000   0.004398  -0.005232   0.564237  -0.029853  -0.026267
    41  H    0.000000  -0.005203   0.004380  -0.029853   0.566555  -0.026341
    42  H   -0.000000  -0.001321  -0.001410  -0.026267  -0.026341   0.560404
 Mulliken charges:
               1
     1  C    0.123625
     2  C   -0.185689
     3  C    0.123622
     4  N   -0.526627
     5  S    0.314205
     6  C   -0.201314
     7  C    0.359646
     8  N   -0.526634
     9  S    0.314205
    10  C   -0.201313
    11  C    0.359640
    12  C   -0.128484
    13  C   -0.091616
    14  C   -0.124043
    15  C   -0.098478
    16  C   -0.128485
    17  C   -0.091615
    18  C   -0.124043
    19  C   -0.098476
    20  C   -0.084974
    21  C   -0.330649
    22  C   -0.084970
    23  C   -0.330651
    24  H    0.178376
    25  H    0.147458
    26  H    0.130932
    27  H    0.133377
    28  H    0.148977
    29  H    0.147458
    30  H    0.130932
    31  H    0.133378
    32  H    0.148978
    33  H    0.161750
    34  H    0.162594
    35  H    0.135757
    36  H    0.133891
    37  H    0.137637
    38  H    0.161747
    39  H    0.162592
    40  H    0.135756
    41  H    0.133892
    42  H    0.137636
 Sum of Mulliken charges =   1.00000
 Mulliken charges with hydrogens summed into heavy atoms:
               1
     1  C    0.123625
     2  C   -0.007313
     3  C    0.123622
     4  N   -0.526627
     5  S    0.314205
     6  C   -0.201314
     7  C    0.359646
     8  N   -0.526634
     9  S    0.314205
    10  C   -0.201313
    11  C    0.359640
    12  C    0.018973
    13  C    0.039316
    14  C    0.009335
    15  C    0.050499
    16  C    0.018973
    17  C    0.039318
    18  C    0.009334
    19  C    0.050502
    20  C    0.239370
    21  C    0.076636
    22  C    0.239369
    23  C    0.076633
 Electronic spatial extent (au):  <R**2>=          10362.7174
 Charge=              1.0000 electrons
 Dipole moment (field-independent basis, Debye):
    X=              0.0001    Y=              5.1934    Z=              0.0001  Tot=              5.1934
 Quadrupole moment (field-independent basis, Debye-Ang):
   XX=            -65.7863   YY=           -108.6841   ZZ=           -151.4310
   XY=             -0.0003   XZ=              2.2062   YZ=             -0.0005
 Traceless Quadrupole moment (field-independent basis, Debye-Ang):
   XX=             42.8475   YY=             -0.0503   ZZ=            -42.7972
   XY=             -0.0003   XZ=              2.2062   YZ=             -0.0005
 Octapole moment (field-independent basis, Debye-Ang**2):
  XXX=              0.0017  YYY=             23.0546  ZZZ=              0.0005  XYY=             -0.0003
  XXY=             -3.4824  XXZ=              0.0026  XZZ=             -0.0001  YZZ=             14.0786
  YYZ=              0.0016  XYZ=              5.9907
 Hexadecapole moment (field-independent basis, Debye-Ang**3):
 XXXX=          -8407.1726 YYYY=          -2300.7825 ZZZZ=           -318.0658 XXXY=             -0.0062
 XXXZ=             76.8613 YYYX=             -0.0069 YYYZ=             -0.0038 ZZZX=             -9.3201
 ZZZY=              0.0012 XXYY=          -1808.5853 XXZZ=          -2063.4951 YYZZ=           -504.5941
 XXYZ=             -0.0131 YYXZ=              0.4527 ZZXY=              0.0002
 N-N= 2.127852619795D+03 E-N=-8.080513828661D+03  KE= 1.630278283314D+03
 Unable to Open any file for archive entry.
 1\1\GINC-ZCWANG-VIRTUAL-MACHINE\SP\RB3LYP TD-FC\6-31G(d,p)\C19H19N2S2(
 1+)\ZCWANG\31-Oct-2023\0\\# td=(nstates=50) b3lyp/6-31g(d,p) scrf(smd,
  solvent=ethanol)\\A-1\\1,1\C,0,-1.259214,0.216698,-0.039367\C,0,0.000
 003,0.828935,-0.000122\C,0,1.259209,0.216684,0.039249\N,0,2.433464,0.9
 04848,0.145998\S,0,-1.557561,-1.512152,0.053882\C,0,-3.297665,-1.25882
 4,-0.027283\C,0,-3.589904,0.108866,-0.118299\N,0,-2.433474,0.904863,-0
 .146106\S,0,1.557549,-1.512171,-0.053923\C,0,3.297657,-1.25885,0.02730
 4\C,0,3.5899,0.108842,0.118251\C,0,-4.301571,-2.224422,-0.003624\C,0,-
 5.624645,-1.792125,-0.066975\C,0,-5.925643,-0.425687,-0.149009\C,0,-4.
 920394,0.538274,-0.174272\C,0,4.301563,-2.22445,0.003718\C,0,5.624635,
 -1.792149,0.067066\C,0,5.925635,-0.425707,0.149021\C,0,4.920384,0.5382
 58,0.174213\C,0,-2.510348,2.373529,-0.257226\C,0,-2.566433,3.073786,1.
 101522\C,0,2.510339,2.373497,0.257299\C,0,2.566508,3.073929,-1.101357\
 H,0,0.000014,1.90904,-0.000214\H,0,-4.060576,-3.280313,0.063971\H,0,-6
 .427238,-2.522132,-0.049094\H,0,-6.962056,-0.106514,-0.191342\H,0,-5.1
 76748,1.590213,-0.22813\H,0,4.060566,-3.280345,-0.063815\H,0,6.42723,-
 2.522156,0.049231\H,0,6.962048,-0.106532,0.191339\H,0,5.176733,1.59020
 1,0.228019\H,0,-1.657488,2.708489,-0.852128\H,0,-3.398115,2.597174,-0.
 852215\H,0,-3.441185,2.752064,1.674572\H,0,-1.673838,2.863356,1.699082
 \H,0,-2.63423,4.156364,0.954302\H,0,1.657436,2.708379,0.852183\H,0,3.3
 98074,2.597059,0.85237\H,0,3.441334,2.752344,-1.674368\H,0,1.673988,2.
 86351,-1.699033\H,0,2.634214,4.156493,-0.95399\\Version=ES64L-G16RevC.
 02\State=1-A\HF=-1641.2742849\RMSD=4.939e-09\PG=C01 [X(C19H19N2S2)]\\@
 The archive entry for this job was punched.


 MY DESCRIPTION OF EXPERIENCE IS NOT WHAT HAPPENS
 TO A MAN.  EXPERIENCE IS WHAT A MAN DOES WITH WHAT
 HAPPENS TO HIM.
                         - CHUCK KNOX, SEATTLE SEAHAWKS, 1985
 Job cpu time:       1 days  8 hours 30 minutes 16.6 seconds.
 Elapsed time:       0 days  2 hours  5 minutes 29.1 seconds.
 File lengths (MBytes):  RWF=   4583 Int=      0 D2E=      0 Chk=    335 Scr=      1
 Normal termination of Gaussian 16 at Tue Oct 31 03:42:05 2023.
