 Entering Gaussian System, Link 0=g16
 Initial command:
 /home/zcwang/Gaussian16_AVX2/g16/l1.exe "/home/zcwang/Gaussian16_AVX2/g16/tmp/Gau-2115.inp" -scrdir="/home/zcwang/Gaussian16_AVX2/g16/tmp/"
 Default is to use a total of   4 processors:
                                4 via shared-memory
                                1 via Linda
 Entering Link 1 = /home/zcwang/Gaussian16_AVX2/g16/l1.exe PID=      2118.
  
 Copyright (c) 1988-2021, Gaussian, Inc.  All Rights Reserved.
  
 This is part of the Gaussian(R) 16 program.  It is based on
 the Gaussian(R) 09 system (copyright 2009, Gaussian, Inc.),
 the Gaussian(R) 03 system (copyright 2003, Gaussian, Inc.),
 the Gaussian(R) 98 system (copyright 1998, Gaussian, Inc.),
 the Gaussian(R) 94 system (copyright 1995, Gaussian, Inc.),
 the Gaussian 92(TM) system (copyright 1992, Gaussian, Inc.),
 the Gaussian 90(TM) system (copyright 1990, Gaussian, Inc.),
 the Gaussian 88(TM) system (copyright 1988, Gaussian, Inc.),
 the Gaussian 86(TM) system (copyright 1986, Carnegie Mellon
 University), and the Gaussian 82(TM) system (copyright 1983,
 Carnegie Mellon University). Gaussian is a federally registered
 trademark of Gaussian, Inc.
  
 This software contains proprietary and confidential information,
 including trade secrets, belonging to Gaussian, Inc.
  
 This software is provided under written license and may be
 used, copied, transmitted, or stored only in accord with that
 written license.
  
 The following legend is applicable only to US Government
 contracts under FAR:
  
                    RESTRICTED RIGHTS LEGEND
  
 Use, reproduction and disclosure by the US Government is
 subject to restrictions as set forth in subparagraphs (a)
 and (c) of the Commercial Computer Software - Restricted
 Rights clause in FAR 52.227-19.
  
 Gaussian, Inc.
 340 Quinnipiac St., Bldg. 40, Wallingford CT 06492
  
  
 ---------------------------------------------------------------
 Warning -- This program may not be used in any manner that
 competes with the business of Gaussian, Inc. or will provide
 assistance to any competitor of Gaussian, Inc.  The licensee
 of this program is prohibited from giving any competitor of
 Gaussian, Inc. access to this program.  By using this program,
 the user acknowledges that Gaussian, Inc. is engaged in the
 business of creating and licensing software in the field of
 computational chemistry and represents and warrants to the
 licensee that it is not a competitor of Gaussian, Inc. and that
 it will not use this program in any manner prohibited above.
 ---------------------------------------------------------------
  

 Cite this work as:
 Gaussian 16, Revision C.02,
 M. J. Frisch, G. W. Trucks, H. B. Schlegel, G. E. Scuseria, 
 M. A. Robb, J. R. Cheeseman, G. Scalmani, V. Barone, 
 G. A. Petersson, H. Nakatsuji, X. Li, M. Caricato, A. V. Marenich, 
 J. Bloino, B. G. Janesko, R. Gomperts, B. Mennucci, H. P. Hratchian, 
 J. V. Ortiz, A. F. Izmaylov, J. L. Sonnenberg, D. Williams-Young, 
 F. Ding, F. Lipparini, F. Egidi, J. Goings, B. Peng, A. Petrone, 
 T. Henderson, D. Ranasinghe, V. G. Zakrzewski, J. Gao, N. Rega, 
 G. Zheng, W. Liang, M. Hada, M. Ehara, K. Toyota, R. Fukuda, 
 J. Hasegawa, M. Ishida, T. Nakajima, Y. Honda, O. Kitao, H. Nakai, 
 T. Vreven, K. Throssell, J. A. Montgomery, Jr., J. E. Peralta, 
 F. Ogliaro, M. J. Bearpark, J. J. Heyd, E. N. Brothers, K. N. Kudin, 
 V. N. Staroverov, T. A. Keith, R. Kobayashi, J. Normand, 
 K. Raghavachari, A. P. Rendell, J. C. Burant, S. S. Iyengar, 
 J. Tomasi, M. Cossi, J. M. Millam, M. Klene, C. Adamo, R. Cammi, 
 J. W. Ochterski, R. L. Martin, K. Morokuma, O. Farkas, 
 J. B. Foresman, and D. J. Fox, Gaussian, Inc., Wallingford CT, 2019.
 
 ******************************************
 Gaussian 16:  ES64L-G16RevC.02  7-Dec-2021
                28-Oct-2023 
 ******************************************
 %nprocshared=12
 Will use up to   12 processors via shared memory.
 %mem=4000MB
 ----------------------------------------------------------------
 # td=(nstates=50) b3lyp/6-311+g(2d,p) scrf(smd, solvent=ethanol)
 ----------------------------------------------------------------
 1/38=1,172=1/1;
 2/12=2,17=6,18=5,40=1/2;
 3/5=4,6=6,7=112,11=9,25=1,30=1,70=32201,72=4,74=-5/1,2,3,8;
 4//1;
 5/5=2,38=5,53=4/2;
 8/6=1,10=2,108=50/1;
 9/41=50,42=1,70=2/14;
 6/7=2,8=2,9=2,10=2/1;
 99/5=1,9=1/99;
 ---
 A-1
 ---
 Symbolic Z-matrix:
 Charge =  1 Multiplicity = 1
 C                    -1.25921   0.2167   -0.03937 
 C                     0.        0.82894  -0.00012 
 C                     1.25921   0.21668   0.03925 
 N                     2.43346   0.90485   0.146 
 S                    -1.55756  -1.51215   0.05388 
 C                    -3.29767  -1.25882  -0.02728 
 C                    -3.5899    0.10887  -0.1183 
 N                    -2.43347   0.90486  -0.14611 
 S                     1.55755  -1.51217  -0.05392 
 C                     3.29766  -1.25885   0.0273 
 C                     3.5899    0.10884   0.11825 
 C                    -4.30157  -2.22442  -0.00362 
 C                    -5.62465  -1.79213  -0.06698 
 C                    -5.92564  -0.42569  -0.14901 
 C                    -4.92039   0.53827  -0.17427 
 C                     4.30156  -2.22445   0.00372 
 C                     5.62464  -1.79215   0.06707 
 C                     5.92564  -0.42571   0.14902 
 C                     4.92038   0.53826   0.17421 
 C                    -2.51035   2.37353  -0.25723 
 C                    -2.56643   3.07379   1.10152 
 C                     2.51034   2.3735    0.2573 
 C                     2.56651   3.07393  -1.10136 
 H                     0.00001   1.90904  -0.00021 
 H                    -4.06058  -3.28031   0.06397 
 H                    -6.42724  -2.52213  -0.04909 
 H                    -6.96206  -0.10651  -0.19134 
 H                    -5.17675   1.59021  -0.22813 
 H                     4.06057  -3.28035  -0.06382 
 H                     6.42723  -2.52216   0.04923 
 H                     6.96205  -0.10653   0.19134 
 H                     5.17673   1.5902    0.22802 
 H                    -1.65749   2.70849  -0.85213 
 H                    -3.39812   2.59717  -0.85222 
 H                    -3.44119   2.75206   1.67457 
 H                    -1.67384   2.86336   1.69908 
 H                    -2.63423   4.15636   0.9543 
 H                     1.65744   2.70838   0.85218 
 H                     3.39807   2.59706   0.85237 
 H                     3.44133   2.75234  -1.67437 
 H                     1.67399   2.86351  -1.69903 
 H                     2.63421   4.15649  -0.95399 
 
                          Input orientation:                          
 ---------------------------------------------------------------------
 Center     Atomic      Atomic             Coordinates (Angstroms)
 Number     Number       Type             X           Y           Z
 ---------------------------------------------------------------------
      1          6           0       -1.259214    0.216698   -0.039367
      2          6           0        0.000003    0.828935   -0.000122
      3          6           0        1.259209    0.216684    0.039249
      4          7           0        2.433464    0.904848    0.145998
      5         16           0       -1.557561   -1.512152    0.053882
      6          6           0       -3.297665   -1.258824   -0.027283
      7          6           0       -3.589904    0.108866   -0.118299
      8          7           0       -2.433474    0.904863   -0.146106
      9         16           0        1.557549   -1.512171   -0.053923
     10          6           0        3.297657   -1.258850    0.027304
     11          6           0        3.589900    0.108842    0.118251
     12          6           0       -4.301571   -2.224422   -0.003624
     13          6           0       -5.624645   -1.792125   -0.066975
     14          6           0       -5.925643   -0.425687   -0.149009
     15          6           0       -4.920394    0.538274   -0.174272
     16          6           0        4.301563   -2.224450    0.003718
     17          6           0        5.624635   -1.792149    0.067066
     18          6           0        5.925635   -0.425707    0.149021
     19          6           0        4.920384    0.538258    0.174213
     20          6           0       -2.510348    2.373529   -0.257226
     21          6           0       -2.566433    3.073786    1.101522
     22          6           0        2.510339    2.373497    0.257299
     23          6           0        2.566508    3.073929   -1.101357
     24          1           0        0.000014    1.909040   -0.000214
     25          1           0       -4.060576   -3.280313    0.063971
     26          1           0       -6.427238   -2.522132   -0.049094
     27          1           0       -6.962056   -0.106514   -0.191342
     28          1           0       -5.176748    1.590213   -0.228130
     29          1           0        4.060566   -3.280345   -0.063815
     30          1           0        6.427230   -2.522156    0.049231
     31          1           0        6.962048   -0.106532    0.191339
     32          1           0        5.176733    1.590201    0.228019
     33          1           0       -1.657488    2.708489   -0.852128
     34          1           0       -3.398115    2.597174   -0.852215
     35          1           0       -3.441185    2.752064    1.674572
     36          1           0       -1.673838    2.863356    1.699082
     37          1           0       -2.634230    4.156364    0.954302
     38          1           0        1.657436    2.708379    0.852183
     39          1           0        3.398074    2.597059    0.852370
     40          1           0        3.441334    2.752344   -1.674368
     41          1           0        1.673988    2.863510   -1.699033
     42          1           0        2.634214    4.156493   -0.953990
 ---------------------------------------------------------------------
                    Distance matrix (angstroms):
                    1          2          3          4          5
     1  C    0.000000
     2  C    1.400715   0.000000
     3  C    2.519650   1.400715   0.000000
     4  N    3.760822   2.439026   1.365225   0.000000
     5  S    1.756880   2.812403   3.305039   4.666761   0.000000
     6  C    2.516465   3.903087   4.790266   6.128405   1.760320
     7  C    2.334518   3.663318   4.852870   6.081480   2.605334
     8  N    1.365229   2.439034   3.760832   4.875696   2.578600
     9  S    3.305050   2.812405   1.756880   2.578600   3.116975
    10  C    4.790278   3.903091   2.516468   2.332918   4.861894
    11  C    4.852874   3.663319   2.334522   1.404186   5.397047
    12  C    3.900805   5.275087   6.073147   7.428015   2.835529
    13  C    4.805530   6.205730   7.171753   8.500126   4.078500
    14  C    4.711713   6.058839   7.215967   8.469476   4.505742
    15  C    3.677751   4.932050   6.191648   7.369951   3.945244
    16  C    6.073162   5.275092   3.900810   3.647265   5.902476
    17  C    7.171762   6.205730   4.805531   4.178947   7.187664
    18  C    7.215970   6.058835   4.711714   3.737064   7.562251
    19  C    6.191643   4.932042   3.677748   2.513952   6.795766
    20  C    2.502942   2.958671   4.353095   5.173093   4.012868
    21  C    3.342664   3.583234   4.891523   5.533199   4.811050
    22  C    4.353082   2.958669   2.502941   1.474865   5.629161
    23  C    4.891599   3.583248   3.342733   2.505695   6.274923
    24  H    2.109789   1.080105   2.109786   2.636562   3.759458
    25  H    4.481896   5.777398   6.366295   7.726245   3.064568
    26  H    5.848911   7.248550   8.160293   9.502331   4.974376
    27  H    5.714015   7.027225   8.230846   9.455816   5.589680
    28  H    4.155628   5.237393   6.586320   7.650165   4.775219
    29  H    6.366315   5.777405   4.481901   4.495256   5.890985
    30  H    8.160306   7.248551   5.848913   5.263448   8.048417
    31  H    8.230848   7.027220   5.714015   4.640368   8.635879
    32  H    6.586305   5.237376   4.155620   2.828774   7.416578
    33  H    2.651080   2.646869   3.938371   4.580968   4.317945
    34  H    3.301861   3.924275   5.305856   6.153675   4.592952
    35  H    3.758546   4.283083   5.585350   6.345096   4.935404
    36  H    3.193574   3.134949   4.285170   4.808092   4.676032
    37  H    4.289407   4.349930   5.614024   6.075132   5.839696
    38  H    3.938297   2.646851   2.651036   2.086538   5.365293
    39  H    5.305812   3.924270   3.301832   2.071958   6.487027
    40  H    5.585506   4.283148   3.758687   2.782584   6.794242
    41  H    4.285298   3.134967   3.193643   2.795943   5.715071
    42  H    5.614027   4.349894   4.289436   3.438527   7.121820
                    6          7          8          9         10
     6  C    0.000000
     7  C    1.401522   0.000000
     8  N    2.332914   1.404178   0.000000
     9  S    4.861892   5.397053   4.666778   0.000000
    10  C    6.595548   7.023556   6.128425   1.760325   0.000000
    11  C    7.023549   7.183700   6.081494   2.605336   1.401520
    12  C    1.393114   2.442100   3.647261   5.902467   7.660389
    13  C    2.387639   2.785062   4.178945   7.187660   8.938722
    14  C    2.759566   2.396324   3.737060   7.562252   9.262533
    15  C    2.425782   1.399188   2.513951   6.795775   8.414669
    16  C    7.660396   8.230097   7.428039   2.835538   1.393114
    17  C    8.938723   9.410417   8.500143   4.078506   2.387638
    18  C    9.262528   9.534291   8.469488   4.505748   2.759567
    19  C    8.414656   8.526133   7.369955   3.945246   2.425783
    20  C    3.723806   2.512656   1.474868   5.629190   6.856242
    21  C    4.536564   3.365443   2.505690   6.274813   7.369751
    22  C    6.856213   6.517867   5.173095   4.012865   3.723803
    23  C    7.369865   6.903580   5.533279   4.811178   4.536676
    24  H    4.572831   4.017721   2.636573   3.759453   4.572826
    25  H    2.162586   3.426556   4.495252   5.890972   7.630940
    26  H    3.375004   3.870065   5.263445   8.048408   9.806901
    27  H    3.844801   3.379813   4.640365   8.635880  10.326538
    28  H    3.418816   2.173597   2.828778   7.416596   8.944157
    29  H    7.630953   8.367760   7.726273   3.064577   2.162585
    30  H    9.806908  10.358249   9.502352   4.974385   3.375004
    31  H   10.326533  10.558691   9.455825   5.589685   3.844802
    32  H    8.944135   8.897652   7.650157   4.775217   3.418816
    33  H    4.371513   3.321261   2.086549   5.365404   6.408326
    34  H    3.944531   2.601364   2.071965   6.487110   7.776621
    35  H    4.359373   3.197343   2.782535   6.794022   8.013296
    36  H    4.754947   3.815940   2.795972   5.714904   6.671071
    37  H    5.543277   4.294884   3.438526   7.121785   8.085243
    38  H    6.408212   5.935813   4.580916   4.317875   4.371459
    39  H    7.776538   7.480985   6.153652   4.592893   3.944471
    40  H    8.013518   7.671221   6.345245   4.935643   4.359588
    41  H    6.671261   6.147792   4.808235   4.676166   4.755039
    42  H    8.085273   7.471366   6.075133   5.839784   5.543378
                   11         12         13         14         15
    11  C    0.000000
    12  C    8.230084   0.000000
    13  C    9.410410   1.393348   0.000000
    14  C    9.534291   2.427796   1.401600   0.000000
    15  C    8.526141   2.836292   2.436851   1.392977   0.000000
    16  C    2.442096   8.603137   9.935870  10.385308   9.628542
    17  C    2.785055   9.935865  11.250079  11.632834  10.802164
    18  C    2.396320  10.385298  11.632829  11.855025  10.893582
    19  C    1.399185   9.628524  10.802152  10.893574   9.846946
    20  C    6.517884   4.941047   5.204586   4.417189   3.030407
    21  C    6.903488   5.683578   5.864737   5.009434   3.687493
    22  C    2.512658   8.222594   9.145246   8.897545   7.666165
    23  C    3.365489   8.743458   9.583497   9.234225   7.958815
    24  H    4.017714   5.965665   6.733489   6.370754   5.110745
    25  H    8.367742   1.085151   2.162906   3.416537   3.921435
    26  H   10.358237   2.146895   1.085074   2.157930   3.413551
    27  H   10.558693   3.405724   2.155324   1.085272   2.141127
    28  H    8.897671   3.920176   3.415669   2.151966   1.084064
    29  H    3.426553   8.428756   9.798884  10.386563   9.759697
    30  H    3.870059  10.733062  12.074524  12.531079  11.755201
    31  H    3.379809  11.462660  12.701685  12.896134  11.905540
    32  H    2.173594  10.219748  11.322408  11.290204  10.159742
    33  H    5.935898   5.660808   6.050647   5.341777   3.976918
    34  H    7.481040   4.978366   4.983973   4.002572   2.648775
    35  H    7.671044   5.321844   5.333867   4.426746   3.241473
    36  H    6.147627   5.974083   6.356205   5.684284   4.410849
    37  H    7.471359   6.664239   6.735734   5.748555   4.426150
    38  H    3.321245   7.782975   8.609767   8.266066   7.002201
    39  H    2.601337   9.124908  10.075693   9.852485   8.630730
    40  H    3.197445   9.354794  10.267808  10.008339   8.779003
    41  H    3.815945   8.029245   8.809574   8.424713   7.156640
    42  H    4.294941   9.472296  10.216732   9.742460   8.412584
                   16         17         18         19         20
    16  C    0.000000
    17  C    1.393347   0.000000
    18  C    2.427797   1.401600   0.000000
    19  C    2.836294   2.436852   1.392980   0.000000
    20  C    8.222629   9.145271   8.897560   7.666168   0.000000
    21  C    8.743332   9.583372   9.234118   7.958721   1.529608
    22  C    4.941043   5.204578   4.417184   3.030400   5.046983
    23  C    5.683698   5.864816   5.009454   3.687470   5.193995
    24  H    5.965658   6.733475   6.370738   5.110725   2.565877
    25  H    8.428751   9.798875  10.386550   9.759676   5.871312
    26  H   10.733060  12.074519  12.531070  11.755185   6.273184
    27  H   11.462670  12.701690  12.896135  11.905534   5.096338
    28  H   10.219774  11.322429  11.290221  10.159752   2.779230
    29  H    1.085152   2.162908   3.416539   3.921438   8.670675
    30  H    2.146896   1.085075   2.157928   3.413552  10.195192
    31  H    3.405724   2.155324   1.085272   2.141130   9.801949
    32  H    3.920178   3.415672   2.151971   1.084064   7.742111
    33  H    7.783100   8.609877   8.266150   7.002262   1.092464
    34  H    9.125005  10.075775   9.852543   8.630766   1.091860
    35  H    9.354549  10.267572  10.008139   8.778830   2.177519
    36  H    8.029038   8.809365   8.424525   7.156470   2.183305
    37  H    9.472255  10.216694   9.742440   8.412575   2.159085
    38  H    5.660751   6.050606   5.341765   3.976921   4.325891
    39  H    4.978298   4.983916   4.002547   2.648771   6.015864
    40  H    5.322072   5.334024   4.426794   3.241453   6.129789
    41  H    5.974182   6.356247   5.684255   4.410775   4.452814
    42  H    6.664360   6.735838   5.748621   4.426177   5.489167
                   21         22         23         24         25
    21  C    0.000000
    22  C    5.193913   0.000000
    23  C    5.585674   1.529610   0.000000
    24  H    3.026071   2.565885   3.025950   0.000000
    25  H    6.609353   8.670632   9.254870   6.589529   0.000000
    26  H    6.895218  10.195163  10.644746   7.806872   2.487712
    27  H    5.577392   9.801939  10.086470   7.250476   4.307757
    28  H    3.283703   7.742124   7.932336   5.191576   5.005316
    29  H    9.254734   5.871307   6.609501   6.589525   8.122147
    30  H   10.644616   6.273177   6.895302   7.806859  10.515184
    31  H   10.086367   5.096333   5.577380   7.250458  11.471153
    32  H    7.932254   2.779221   3.283590   5.191548  10.443979
    33  H    2.185491   4.325948   4.247094   2.027853   6.517654
    34  H    2.176222   6.015886   5.988831   3.570254   5.985241
    35  H    1.094113   6.129650   6.625840   3.918858   6.274333
    36  H    1.094570   4.452644   5.085994   2.569067   6.790786
    37  H    1.094644   5.489173   5.696058   3.591769   7.624390
    38  H    4.246971   1.092463   2.185488   2.027948   8.317534
    39  H    5.988713   1.091862   2.176225   3.570306   9.528722
    40  H    6.625870   2.177525   1.094111   3.918754   9.782302
    41  H    5.086108   2.183307   1.094571   2.568888   8.587198
    42  H    5.695973   2.159083   1.094644   3.591621  10.057959
                   26         27         28         29         30
    26  H    0.000000
    27  H    2.478200   0.000000
    28  H    4.301995   2.463242   0.000000
    29  H   10.515186  11.471167  10.444008   0.000000
    30  H   12.854844  13.607578  12.314252   2.487716   0.000000
    31  H   13.607568  13.929362  12.263982   4.307759   2.478198
    32  H   12.314228  12.263968  10.363525   5.005319   4.301998
    33  H    7.124239   6.041467   3.745011   8.317675   9.671337
    34  H    6.002323   4.521986   2.137051   9.528837  11.115644
    35  H    6.301165   4.904043   2.825306   9.782035  11.306845
    36  H    7.392862   6.352880   4.195881   8.586982   9.866765
    37  H    7.745710   6.181805   3.801010  10.057907  11.293000
    38  H    9.671220   9.127333   7.008812   6.517584   7.124196
    39  H   11.115553  10.757831   8.701080   5.985162   6.002265
    40  H   11.307092  10.890499   8.815526   6.274605   6.301327
    41  H    9.866980   9.256102   7.121617   6.790924   7.392911
    42  H   11.293041  10.528213   8.253714   7.624530   7.745823
                   31         32         33         34         35
    31  H    0.000000
    32  H    2.463249   0.000000
    33  H    9.127407   7.008842   0.000000
    34  H   10.757881   8.701087   1.744183   0.000000
    35  H   10.890308   8.815382   3.093168   2.531896   0.000000
    36  H    9.255920   7.121466   2.555958   3.090809   1.771017
    37  H   10.528198   8.253716   2.512679   2.505613   1.772575
    38  H    6.041469   3.745044   3.727385   5.336285   5.164704
    39  H    4.521977   2.137102   5.336332   7.006696   6.890247
    40  H    4.904025   2.825113   5.164880   6.890434   7.654049
    41  H    6.352813   4.195720   3.440932   5.149200   6.128509
    42  H    6.181853   3.800974   4.530541   6.231439   6.766996
                   36         37         38         39         40
    36  H    0.000000
    37  H    1.774520   0.000000
    38  H    3.440733   4.530506   0.000000
    39  H    5.148993   6.231413   1.744194   0.000000
    40  H    6.128415   6.767101   3.093167   2.531875   0.000000
    41  H    4.770233   5.222298   2.555982   3.090813   1.771010
    42  H    5.222098   5.603399   2.512646   2.505644   1.772575
                   41         42
    41  H    0.000000
    42  H    1.774522   0.000000
 Stoichiometry    C19H19N2S2(1+)
 Framework group  C1[X(C19H19N2S2)]
 Deg. of freedom   120
 Full point group                 C1      NOp   1
 Largest Abelian subgroup         C1      NOp   1
 Largest concise Abelian subgroup C1      NOp   1
                         Standard orientation:                         
 ---------------------------------------------------------------------
 Center     Atomic      Atomic             Coordinates (Angstroms)
 Number     Number       Type             X           Y           Z
 ---------------------------------------------------------------------
      1          6           0       -1.259214    0.216698   -0.039367
      2          6           0        0.000003    0.828935   -0.000122
      3          6           0        1.259209    0.216684    0.039249
      4          7           0        2.433464    0.904848    0.145998
      5         16           0       -1.557561   -1.512152    0.053882
      6          6           0       -3.297665   -1.258824   -0.027283
      7          6           0       -3.589904    0.108866   -0.118299
      8          7           0       -2.433474    0.904863   -0.146106
      9         16           0        1.557549   -1.512171   -0.053923
     10          6           0        3.297657   -1.258850    0.027304
     11          6           0        3.589900    0.108842    0.118251
     12          6           0       -4.301571   -2.224422   -0.003624
     13          6           0       -5.624645   -1.792125   -0.066975
     14          6           0       -5.925643   -0.425687   -0.149009
     15          6           0       -4.920394    0.538274   -0.174272
     16          6           0        4.301563   -2.224450    0.003718
     17          6           0        5.624635   -1.792149    0.067066
     18          6           0        5.925635   -0.425707    0.149021
     19          6           0        4.920384    0.538258    0.174213
     20          6           0       -2.510348    2.373529   -0.257226
     21          6           0       -2.566433    3.073786    1.101522
     22          6           0        2.510339    2.373497    0.257299
     23          6           0        2.566508    3.073929   -1.101357
     24          1           0        0.000014    1.909040   -0.000214
     25          1           0       -4.060576   -3.280313    0.063971
     26          1           0       -6.427238   -2.522132   -0.049094
     27          1           0       -6.962056   -0.106514   -0.191342
     28          1           0       -5.176748    1.590213   -0.228130
     29          1           0        4.060566   -3.280345   -0.063815
     30          1           0        6.427230   -2.522156    0.049231
     31          1           0        6.962048   -0.106532    0.191339
     32          1           0        5.176733    1.590201    0.228019
     33          1           0       -1.657488    2.708489   -0.852128
     34          1           0       -3.398115    2.597174   -0.852215
     35          1           0       -3.441185    2.752064    1.674572
     36          1           0       -1.673838    2.863356    1.699082
     37          1           0       -2.634230    4.156364    0.954302
     38          1           0        1.657436    2.708379    0.852183
     39          1           0        3.398074    2.597059    0.852370
     40          1           0        3.441334    2.752344   -1.674368
     41          1           0        1.673988    2.863510   -1.699033
     42          1           0        2.634214    4.156493   -0.953990
 ---------------------------------------------------------------------
 Rotational constants (GHZ):           0.5197631           0.1187459           0.0985340
 Standard basis: 6-311+G(2d,p) (5D, 7F)
 There are   797 symmetry adapted cartesian basis functions of A   symmetry.
 There are   751 symmetry adapted basis functions of A   symmetry.
   751 basis functions,  1146 primitive gaussians,   797 cartesian basis functions
    89 alpha electrons       89 beta electrons
       nuclear repulsion energy      2127.8579715027 Hartrees.
 NAtoms=   42 NActive=   42 NUniq=   42 SFac= 1.00D+00 NAtFMM=   60 NAOKFM=F Big=F
 Integral buffers will be    131072 words long.
 Regular integral format.
 Two-electron integral symmetry is turned on.
 ------------------------------------------------------------------------------
 Polarizable Continuum Model (PCM)
 =================================
 Model                : PCM.
 Atomic radii         : SMD-Coulomb.
 Polarization charges : Total charges.
 Charge compensation  : None.
 Solution method      : On-the-fly selection.
 Cavity type          : VdW (van der Waals Surface) (Alpha=1.000).
 Cavity algorithm     : GePol (No added spheres)
                        Default sphere list used, NSphG=   42.
                        Lebedev-Laikov grids with approx.  5.0 points / Ang**2.
                        Smoothing algorithm: York/Karplus (Gamma=1.0000).
                        Polarization charges: spherical gaussians, with
                                              point-specific exponents (IZeta= 3).
                        Self-potential: point-specific (ISelfS= 7).
                        Self-field    : sphere-specific E.n sum rule (ISelfD= 2).
 Solvent              : Ethanol, Eps=  24.852000 Eps(inf)=   1.852593
 ------------------------------------------------------------------------------
 ------------------------------------------------------------------------------
 Atomic radii for non-electrostatic terms: SMD-CDS.
 ------------------------------------------------------------------------------
 Nuclear repulsion after PCM non-electrostatic terms =     2127.8526197948 Hartrees.
 One-electron integrals computed using PRISM.
 NBasis=   751 RedAO= T EigKep=  1.86D-06  NBF=   751
 NBsUse=   745 1.00D-06 EigRej=  9.51D-07 NBFU=   745
 ExpMin= 4.05D-02 ExpMax= 9.34D+04 ExpMxC= 3.17D+03 IAcc=3 IRadAn=         5 AccDes= 0.00D+00
 Harris functional with IExCor=  402 and IRadAn=       5 diagonalized for initial guess.
 HarFok:  IExCor=  402 AccDes= 0.00D+00 IRadAn=         5 IDoV= 1 UseB2=F ITyADJ=14
 ICtDFT=  3500011 ScaDFX=  1.000000  1.000000  1.000000  1.000000
 FoFCou: FMM=F IPFlag=           0 FMFlag=      100000 FMFlg1=           0
         NFxFlg=           0 DoJE=T BraDBF=F KetDBF=T FulRan=T
         wScrn=  0.000000 ICntrl=       500 IOpCl=  0 I1Cent=   200000004 NGrid=           0
         NMat0=    1 NMatS0=      1 NMatT0=    0 NMatD0=    1 NMtDS0=    0 NMtDT0=    0
 Petite list used in FoFCou.
 Requested convergence on RMS density matrix=1.00D-08 within 128 cycles.
 Requested convergence on MAX density matrix=1.00D-06.
 Requested convergence on             energy=1.00D-06.
 No special actions if energy rises.
 Inv3:  Mode=1 IEnd=    30470907.
 Iteration    1 A*A^-1 deviation from unit magnitude is 3.77D-15 for   3042.
 Iteration    1 A*A^-1 deviation from orthogonality  is 1.71D-15 for   2684   1701.
 Iteration    1 A^-1*A deviation from unit magnitude is 3.77D-15 for   3042.
 Iteration    1 A^-1*A deviation from orthogonality  is 4.74D-09 for   2565   2551.
 Iteration    2 A*A^-1 deviation from unit magnitude is 2.22D-15 for    903.
 Iteration    2 A*A^-1 deviation from orthogonality  is 3.89D-15 for   2551    549.
 Iteration    2 A^-1*A deviation from unit magnitude is 1.78D-15 for    236.
 Iteration    2 A^-1*A deviation from orthogonality  is 1.28D-15 for    548    112.
 Error on total polarization charges =  0.06242
 SCF Done:  E(RB3LYP) =  -1641.53253972     A.U. after   13 cycles
            NFock= 13  Conv=0.57D-08     -V/T= 2.0032
 SMD-CDS (non-electrostatic) energy       (kcal/mol) =      -3.36
 (included in total energy above)
 DoSCS=F DFT=T ScalE2(SS,OS)=  1.000000  1.000000
 ExpMin= 4.05D-02 ExpMax= 9.34D+04 ExpMxC= 3.17D+03 IAcc=3 IRadAn=         5 AccDes= 0.00D+00
 HarFok:  IExCor=  205 AccDes= 0.00D+00 IRadAn=         5 IDoV=-2 UseB2=F ITyADJ=14
 ICtDFT= 12500011 ScaDFX=  1.000000  1.000000  1.000000  1.000000
 GSVD:  LWork=       -1209 too small for GESVD, short by        5270 words or        5270 for optimal perf.
 Range of M.O.s used for correlation:    32   745
 NBasis=   751 NAE=    89 NBE=    89 NFC=    31 NFV=     0
 NROrb=    714 NOA=    58 NOB=    58 NVA=   656 NVB=   656

 **** Warning!!: The largest alpha MO coefficient is  0.90843340D+02

 NEqPCM:  Using non-equilibrium solvation (IEInf=1, Eps=  24.8520, EpsInf=   1.8526)
 Inv3:  Mode=1 IEnd=    30470907.
 Iteration    1 A*A^-1 deviation from unit magnitude is 3.11D-15 for   1102.
 Iteration    1 A*A^-1 deviation from orthogonality  is 2.30D-15 for   1509    655.
 Iteration    1 A^-1*A deviation from unit magnitude is 3.33D-15 for    366.
 Iteration    1 A^-1*A deviation from orthogonality  is 1.39D-15 for   1068    949.
 Orbital symmetries:
       Occupied  (A) (A) (A) (A) (A) (A) (A) (A) (A) (A) (A) (A)
                 (A) (A) (A) (A) (A) (A) (A) (A) (A) (A) (A) (A)
                 (A) (A) (A) (A) (A) (A) (A) (A) (A) (A) (A) (A)
                 (A) (A) (A) (A) (A) (A) (A) (A) (A) (A) (A) (A)
                 (A) (A) (A) (A) (A) (A) (A) (A) (A) (A) (A) (A)
                 (A) (A) (A) (A) (A) (A) (A) (A) (A) (A) (A) (A)
                 (A) (A) (A) (A) (A) (A) (A) (A) (A) (A) (A) (A)
                 (A) (A) (A) (A) (A)
       Virtual   (A) (A) (A) (A) (A) (A) (A) (A) (A) (A) (A) (A)
                 (A) (A) (A) (A) (A) (A) (A) (A) (A) (A) (A) (A)
                 (A) (A) (A) (A) (A) (A) (A) (A) (A) (A) (A) (A)
                 (A) (A) (A) (A) (A) (A) (A) (A) (A) (A) (A) (A)
                 (A) (A) (A) (A) (A) (A) (A) (A) (A) (A) (A) (A)
                 (A) (A) (A) (A) (A) (A) (A) (A) (A) (A) (A) (A)
                 (A) (A) (A) (A) (A) (A) (A) (A) (A) (A) (A) (A)
                 (A) (A) (A) (A) (A) (A) (A) (A) (A) (A) (A) (A)
                 (A) (A) (A) (A) (A) (A) (A) (A) (A) (A) (A) (A)
                 (A) (A) (A) (A) (A) (A) (A) (A) (A) (A) (A) (A)
                 (A) (A) (A) (A) (A) (A) (A) (A) (A) (A) (A) (A)
                 (A) (A) (A) (A) (A) (A) (A) (A) (A) (A) (A) (A)
                 (A) (A) (A) (A) (A) (A) (A) (A) (A) (A) (A) (A)
                 (A) (A) (A) (A) (A) (A) (A) (A) (A) (A) (A) (A)
                 (A) (A) (A) (A) (A) (A) (A) (A) (A) (A) (A) (A)
                 (A) (A) (A) (A) (A) (A) (A) (A) (A) (A) (A) (A)
                 (A) (A) (A) (A) (A) (A) (A) (A) (A) (A) (A) (A)
                 (A) (A) (A) (A) (A) (A) (A) (A) (A) (A) (A) (A)
                 (A) (A) (A) (A) (A) (A) (A) (A) (A) (A) (A) (A)
                 (A) (A) (A) (A) (A) (A) (A) (A) (A) (A) (A) (A)
                 (A) (A) (A) (A) (A) (A) (A) (A) (A) (A) (A) (A)
                 (A) (A) (A) (A) (A) (A) (A) (A) (A) (A) (A) (A)
                 (A) (A) (A) (A) (A) (A) (A) (A) (A) (A) (A) (A)
                 (A) (A) (A) (A) (A) (A) (A) (A) (A) (A) (A) (A)
                 (A) (A) (A) (A) (A) (A) (A) (A) (A) (A) (A) (A)
                 (A) (A) (A) (A) (A) (A) (A) (A) (A) (A) (A) (A)
                 (A) (A) (A) (A) (A) (A) (A) (A) (A) (A) (A) (A)
                 (A) (A) (A) (A) (A) (A) (A) (A) (A) (A) (A) (A)
                 (A) (A) (A) (A) (A) (A) (A) (A) (A) (A) (A) (A)
                 (A) (A) (A) (A) (A) (A) (A) (A) (A) (A) (A) (A)
                 (A) (A) (A) (A) (A) (A) (A) (A) (A) (A) (A) (A)
                 (A) (A) (A) (A) (A) (A) (A) (A) (A) (A) (A) (A)
                 (A) (A) (A) (A) (A) (A) (A) (A) (A) (A) (A) (A)
                 (A) (A) (A) (A) (A) (A) (A) (A) (A) (A) (A) (A)
                 (A) (A) (A) (A) (A) (A) (A) (A) (A) (A) (A) (A)
                 (A) (A) (A) (A) (A) (A) (A) (A) (A) (A) (A) (A)
                 (A) (A) (A) (A) (A) (A) (A) (A) (A) (A) (A) (A)
                 (A) (A) (A) (A) (A) (A) (A) (A) (A) (A) (A) (A)
                 (A) (A) (A) (A) (A) (A) (A) (A) (A) (A) (A) (A)
                 (A) (A) (A) (A) (A) (A) (A) (A) (A) (A) (A) (A)
                 (A) (A) (A) (A) (A) (A) (A) (A) (A) (A) (A) (A)
                 (A) (A) (A) (A) (A) (A) (A) (A) (A) (A) (A) (A)
                 (A) (A) (A) (A) (A) (A) (A) (A) (A) (A) (A) (A)
                 (A) (A) (A) (A) (A) (A) (A) (A) (A) (A) (A) (A)
                 (A) (A) (A) (A) (A) (A) (A) (A) (A) (A) (A) (A)
                 (A) (A) (A) (A) (A) (A) (A) (A) (A) (A) (A) (A)
                 (A) (A) (A) (A) (A) (A) (A) (A) (A) (A) (A) (A)
                 (A) (A) (A) (A) (A) (A) (A) (A) (A) (A) (A) (A)
                 (A) (A) (A) (A) (A) (A) (A) (A) (A) (A) (A) (A)
                 (A) (A) (A) (A) (A) (A) (A) (A) (A) (A) (A) (A)
                 (A) (A) (A) (A) (A) (A) (A) (A) (A) (A) (A) (A)
                 (A) (A) (A) (A) (A) (A) (A) (A) (A) (A) (A) (A)
                 (A) (A) (A) (A) (A) (A) (A) (A) (A) (A) (A) (A)
                 (A) (A) (A) (A) (A) (A) (A) (A) (A) (A) (A) (A)
                 (A) (A) (A) (A) (A) (A) (A) (A)
   200 initial guesses have been made.
 Convergence on wavefunction:    0.001000000000000
 Iteration     1 Dimension   200 NMult     0 NNew    200
 CISAX will form    24 AO SS matrices at one time.
 New state      6 was old state      7
 New state      7 was old state      6
 New state      8 was old state     11
 New state      9 was old state      8
 New state     10 was old state      9
 New state     11 was old state     12
 New state     12 was old state     10
 New state     14 was old state     18
 New state     17 was old state     20
 New state     18 was old state     21
 New state     19 was old state     14
 New state     20 was old state     19
 New state     21 was old state     24
 New state     22 was old state     23
 New state     23 was old state     26
 New state     24 was old state     27
 New state     25 was old state     30
 New state     26 was old state     22
 New state     27 was old state     29
 New state     28 was old state     33
 New state     29 was old state     25
 New state     30 was old state     31
 New state     31 was old state     40
 New state     32 was old state     41
 New state     33 was old state     35
 New state     34 was old state     45
 New state     35 was old state     38
 New state     36 was old state     37
 New state     37 was old state     32
 New state     38 was old state     42
 New state     39 was old state     44
 New state     40 was old state     17
 New state     41 was old state     34
 New state     42 was old state     51
 New state     43 was old state     50
 New state     44 was old state     43
 New state     45 was old state     48
 New state     46 was old state     47
 New state     47 was old state     49
 New state     48 was old state     70
 New state     49 was old state     53
 New state     50 was old state     46
 Iteration     2 Dimension   300 NMult   200 NNew    100
 New state      8 was old state      9
 New state      9 was old state     10
 New state     10 was old state      8
 New state     14 was old state     15
 New state     15 was old state     14
 New state     17 was old state     18
 New state     18 was old state     17
 New state     20 was old state     23
 New state     21 was old state     22
 New state     22 was old state     24
 New state     23 was old state     21
 New state     24 was old state     20
 New state     25 was old state     26
 New state     26 was old state     25
 New state     27 was old state     39
 New state     28 was old state     27
 New state     29 was old state     37
 New state     30 was old state     28
 New state     31 was old state     29
 New state     32 was old state     30
 New state     34 was old state     31
 New state     35 was old state     32
 New state     36 was old state     35
 New state     37 was old state     34
 New state     38 was old state     43
 New state     39 was old state     36
 New state     40 was old state     41
 New state     41 was old state     38
 New state     42 was old state     62
 New state     43 was old state     40
 New state     44 was old state     42
 New state     46 was old state     44
 New state     47 was old state     50
 New state     48 was old state     46
 New state     49 was old state     48
 New state     50 was old state     52
 Iteration     3 Dimension   400 NMult   300 NNew    100
 New state     30 was old state     31
 New state     31 was old state     30
 Iteration     4 Dimension   494 NMult   400 NNew     94
 Iteration     5 Dimension   536 NMult   494 NNew     42
 New state     37 was old state     38
 New state     38 was old state     37
 Iteration     6 Dimension   544 NMult   536 NNew      8
 Iteration     7 Dimension   548 NMult   544 NNew      4
 Convergence on energies, max DE= 1.24D-06.
 ***********************************************************************
 Excited states from <AA,BB:AA,BB> singles matrix:
 ***********************************************************************
 
 Ground to excited state transition densities written to RWF  633
 Ground to excited state transition electric dipole moments (Au):
       state          X           Y           Z        Dip. S.      Osc.
         1         3.9621      0.0000      0.0339     15.6998      1.2076
         2        -0.0662      0.0000     -0.0583      0.0078      0.0007
         3         0.0000     -0.4100     -0.0000      0.1681      0.0167
         4         0.2222      0.0000      0.0157      0.0496      0.0051
         5         0.0000     -0.6576      0.0000      0.4324      0.0459
         6        -0.6052      0.0000     -0.0544      0.3692      0.0404
         7         0.0000     -0.0490      0.0000      0.0024      0.0003
         8        -0.0000     -0.8556      0.0000      0.7321      0.0848
         9         0.1189     -0.0000      0.0317      0.0151      0.0018
        10        -0.0000     -0.0253      0.0000      0.0006      0.0001
        11         0.0001      0.0213     -0.0000      0.0005      0.0001
        12         0.1965     -0.0000     -0.0262      0.0393      0.0049
        13         0.2451      0.0000     -0.0091      0.0601      0.0075
        14         1.4342     -0.0000      0.0058      2.0570      0.2667
        15         0.0001     -0.0481     -0.0000      0.0023      0.0003
        16         0.0001     -0.0001     -0.0000      0.0000      0.0000
        17         0.0065      0.2039     -0.0016      0.0416      0.0056
        18         0.6540     -0.0022     -0.1555      0.4519      0.0612
        19        -0.8357      0.0000     -0.0451      0.7004      0.0959
        20        -0.0000     -1.1695      0.0001      1.3678      0.1879
        21         0.1654      0.0006      0.1130      0.0401      0.0055
        22         0.0000      0.6137     -0.0000      0.3767      0.0525
        23         0.0655     -0.0001     -0.0937      0.0131      0.0018
        24         0.0001     -0.0846      0.0000      0.0072      0.0010
        25        -0.0388      0.0001      0.0426      0.0033      0.0005
        26         0.0945      0.0001     -0.2387      0.0659      0.0095
        27         0.0002      0.0077      0.0000      0.0001      0.0000
        28         0.0159     -0.0762      0.0001      0.0061      0.0009
        29         1.4095      0.0008      0.0110      1.9867      0.2918
        30        -1.4662     -0.0000     -0.1217      2.1647      0.3209
        31         0.0007     -0.0239      0.0001      0.0006      0.0001
        32        -0.0001     -0.1766     -0.0000      0.0312      0.0047
        33        -0.0001      0.2944     -0.0001      0.0866      0.0131
        34        -0.0012     -0.0594     -0.0000      0.0035      0.0005
        35        -0.7442      0.0000      0.0067      0.5538      0.0843
        36         0.3810      0.0001      0.1797      0.1775      0.0272
        37        -0.0159     -0.0878     -0.0035      0.0080      0.0012
        38         0.2773     -0.0050      0.0604      0.0806      0.0124
        39         0.1471     -0.0000     -0.1229      0.0367      0.0057
        40        -0.3686      0.0000      0.1364      0.1545      0.0239
        41         0.2087     -0.0000     -0.1854      0.0779      0.0121
        42         1.3427     -0.0000      0.1243      1.8183      0.2854
        43         0.0002      0.0636      0.0000      0.0040      0.0006
        44         0.0505     -0.0002      0.1103      0.0147      0.0023
        45         0.0000      0.9953      0.0000      0.9905      0.1571
        46         0.0000     -0.0309      0.0000      0.0010      0.0002
        47         0.0001      0.2354      0.0001      0.0554      0.0089
        48        -0.0287      0.0008     -0.0232      0.0014      0.0002
        49        -0.0000     -0.0000      0.0000      0.0000      0.0000
        50        -0.0000      0.0604     -0.0000      0.0036      0.0006
 Ground to excited state transition velocity dipole moments (Au):
       state          X           Y           Z        Dip. S.      Osc.
         1        -0.4572     -0.0000     -0.0038      0.2090      1.2078
         2         0.0093     -0.0000      0.0091      0.0002      0.0008
         3        -0.0000      0.0616      0.0000      0.0038      0.0170
         4        -0.0340     -0.0000     -0.0023      0.0012      0.0050
         5        -0.0000      0.1081     -0.0000      0.0117      0.0489
         6         0.1010     -0.0000      0.0092      0.0103      0.0417
         7        -0.0000      0.0081     -0.0000      0.0001      0.0003
         8         0.0000      0.1510     -0.0000      0.0228      0.0875
         9        -0.0224      0.0000     -0.0049      0.0005      0.0020
        10        -0.0000      0.0045     -0.0000      0.0000      0.0001
        11        -0.0000     -0.0037      0.0000      0.0000      0.0000
        12        -0.0363      0.0000      0.0004      0.0013      0.0047
        13        -0.0460     -0.0000      0.0029      0.0021      0.0075
        14        -0.2804      0.0000     -0.0011      0.0786      0.2696
        15        -0.0000      0.0095      0.0000      0.0001      0.0003
        16        -0.0000      0.0008      0.0000      0.0000      0.0000
        17        -0.0013     -0.0397      0.0004      0.0016      0.0052
        18        -0.1327      0.0004      0.0337      0.0187      0.0615
        19         0.1698     -0.0000      0.0098      0.0289      0.0940
        20         0.0000      0.2433     -0.0000      0.0592      0.1915
        21        -0.0346     -0.0001     -0.0244      0.0018      0.0058
        22        -0.0000     -0.1302      0.0000      0.0169      0.0540
        23        -0.0143      0.0000      0.0210      0.0006      0.0020
        24        -0.0000      0.0186     -0.0000      0.0003      0.0011
        25         0.0070     -0.0000     -0.0091      0.0001      0.0004
        26        -0.0199     -0.0000      0.0484      0.0027      0.0085
        27        -0.0000     -0.0013     -0.0000      0.0000      0.0000
        28        -0.0035      0.0157     -0.0000      0.0003      0.0008
        29        -0.3111     -0.0002     -0.0022      0.0968      0.2928
        30         0.3255      0.0000      0.0271      0.1067      0.3198
        31        -0.0002      0.0059     -0.0000      0.0000      0.0001
        32         0.0000      0.0393      0.0000      0.0015      0.0046
        33         0.0000     -0.0700      0.0000      0.0049      0.0144
        34         0.0003      0.0149      0.0000      0.0002      0.0006
        35         0.1706     -0.0000     -0.0035      0.0291      0.0849
        36        -0.0874     -0.0000     -0.0439      0.0096      0.0277
        37         0.0037      0.0222      0.0009      0.0005      0.0015
        38        -0.0642      0.0013     -0.0162      0.0044      0.0127
        39        -0.0325      0.0000      0.0262      0.0017      0.0050
        40         0.0832     -0.0000     -0.0321      0.0080      0.0228
        41        -0.0509      0.0000      0.0465      0.0048      0.0136
        42        -0.3188      0.0000     -0.0310      0.1026      0.2906
        43        -0.0000     -0.0149     -0.0000      0.0002      0.0006
        44        -0.0124      0.0000     -0.0277      0.0009      0.0026
        45        -0.0000     -0.2380     -0.0000      0.0566      0.1587
        46        -0.0000      0.0075     -0.0000      0.0001      0.0002
        47        -0.0000     -0.0576     -0.0000      0.0033      0.0092
        48         0.0087     -0.0002      0.0041      0.0001      0.0003
        49         0.0000      0.0004     -0.0000      0.0000      0.0000
        50         0.0000     -0.0149     -0.0000      0.0002      0.0006
 Ground to excited state transition magnetic dipole moments (Au):
       state          X           Y           Z
         1         0.0197      0.0001      0.7147
         2         0.1814      0.0000      0.1743
         3         0.0000      0.0533      0.0000
         4         0.0119      0.0000      0.2115
         5        -0.0000     -0.1112      0.0000
         6        -0.0515      0.0000      1.2713
         7         0.0000     -0.0320     -0.0000
         8        -0.0000     -0.0925      0.0000
         9         0.0284     -0.0001     -1.6295
        10        -0.0000      0.3690     -0.0002
        11         0.0003      0.2226      0.0001
        12         0.5239     -0.0001     -0.0887
        13        -0.2561      0.0000     -0.0370
        14         0.0277      0.0001      0.5046
        15        -0.0000     -0.0417      0.0000
        16        -0.0001      0.3087      0.0000
        17        -0.0019     -0.1521      0.0078
        18        -0.1772      0.0015      0.7809
        19        -0.0120     -0.0000     -0.9633
        20         0.0000     -0.1385      0.0001
        21        -0.0105      0.0000      0.5372
        22         0.0000      0.0606      0.0001
        23        -0.1266     -0.0000      0.1178
        24        -0.0000     -0.0414      0.0001
        25        -0.0342      0.0000      1.4842
        26        -0.0429      0.0000      0.1771
        27         0.0000     -0.0893      0.0001
        28         0.0011     -0.4267     -0.0054
        29         0.1007      0.0049     -0.4865
        30        -0.0079      0.0003      2.3415
        31         0.0000      0.5058     -0.0012
        32         0.0000     -0.0892      0.0001
        33        -0.0000      0.1199      0.0002
        34        -0.0002      0.2853      0.0029
        35        -0.1546     -0.0004      1.8861
        36        -0.3127      0.0000     -1.3339
        37        -0.0030     -0.1957      0.0119
        38         0.0522     -0.0112     -0.2056
        39         0.1913     -0.0000     -0.5911
        40        -0.1998      0.0000      0.4745
        41         0.0721      0.0000      0.7685
        42        -0.1704     -0.0001      0.9168
        43        -0.0001      0.4179      0.0000
        44         0.5232      0.0000     -0.0273
        45         0.0001      0.0014      0.0000
        46         0.0000     -0.0706     -0.0000
        47         0.0005      0.3172      0.0003
        48        -0.1644      0.0010     -0.0566
        49         0.0000      0.0593      0.0001
        50        -0.0001     -0.4145     -0.0002
 Ground to excited state transition velocity quadrupole moments (Au):
       state          XX          YY          ZZ          XY          XZ          YZ
         1         0.0000     -0.0000      0.0000      0.5172     -0.0000      0.0274
         2        -0.0001      0.0000      0.0000      0.0045      0.0000     -0.0468
         3        -0.1560      0.0903      0.0095      0.0000     -0.0071      0.0000
         4         0.0000     -0.0000     -0.0000     -0.2697     -0.0000      0.0192
         5         1.8252     -0.2458     -0.0167      0.0000      0.0934      0.0000
         6        -0.0001      0.0000      0.0000      0.4267     -0.0000      0.0001
         7        -1.6908     -0.0360     -0.0056     -0.0000     -0.0448     -0.0000
         8        -1.7355     -0.0896     -0.0037      0.0000     -0.0364      0.0000
         9        -0.0001     -0.0000      0.0000     -0.8927     -0.0000     -0.0344
        10         0.1239      0.0012     -0.0061     -0.0001      0.1016     -0.0000
        11         0.2134      0.0148      0.0113      0.0001     -0.1183      0.0002
        12         0.0000      0.0000     -0.0000     -0.0331      0.0001      0.3170
        13         0.0001     -0.0000     -0.0000      0.1174     -0.0000      0.0292
        14        -0.0000     -0.0000      0.0000      0.6510     -0.0000      0.0207
        15         0.0290     -0.0218      0.0125      0.0000      0.0349     -0.0000
        16         0.0834      0.2277      0.0346      0.0001     -0.1976     -0.0000
        17         0.3682      0.1088     -0.0153      0.0110      0.1428     -0.0007
        18        -0.0040     -0.0011      0.0002      1.1098     -0.0015     -0.0631
        19         0.0002      0.0000     -0.0000     -1.3441      0.0000     -0.0379
        20        -4.1349     -0.3031      0.0639      0.0003      0.0015      0.0000
        21         0.0019      0.0002     -0.0000      0.8948      0.0000     -0.0075
        22         0.3255      0.3052     -0.0178     -0.0000     -0.0573      0.0000
        23        -0.0004     -0.0001      0.0000     -0.1184      0.0000     -0.0460
        24         0.3351     -0.0686      0.0383      0.0002      0.0448      0.0000
        25         0.0002      0.0001     -0.0000      1.1600     -0.0000     -0.0109
        26         0.0002      0.0001     -0.0000      0.1677     -0.0000     -0.0986
        27        -1.6266     -0.6440      0.0525      0.0002      0.0574      0.0000
        28        -0.2751      0.3031      0.0752      0.0035      0.4379      0.0011
        29         0.0033     -0.0033     -0.0008      0.3054     -0.0050      0.1018
        30         0.0001     -0.0001     -0.0000      0.7225     -0.0003      0.0489
        31        -0.0207     -0.1174     -0.0674     -0.0004     -0.4842     -0.0000
        32        -0.5060      0.1371     -0.0054      0.0001      0.0557      0.0000
        33         0.0633      0.1361      0.0887      0.0001     -0.1268      0.0000
        34         1.9174     -0.2087     -0.0610      0.0014     -0.1925     -0.0000
        35        -0.0033      0.0003      0.0001      0.9179      0.0002     -0.0250
        36         0.0006     -0.0001      0.0000     -0.9048      0.0000     -0.1715
        37         7.4209     -0.8474      0.0077      0.0048      0.3715      0.0008
        38         0.4252     -0.0485      0.0004     -0.0827      0.0213     -0.0149
        39        -0.0001     -0.0000     -0.0000     -0.0979      0.0000      0.0230
        40         0.0001      0.0000     -0.0000      0.0333      0.0000     -0.2598
        41         0.0002     -0.0001     -0.0000      0.9575      0.0000      0.1685
        42        -0.0001     -0.0000      0.0000      2.4139     -0.0000     -0.0727
        43         0.2148      0.0252     -0.0076      0.0003     -0.1085     -0.0001
        44        -0.0002     -0.0001      0.0000      0.0614     -0.0000      0.0991
        45         1.3013      0.4885     -0.0158      0.0002      0.0278     -0.0000
        46        -0.1810      0.2199     -0.1087      0.0000      0.1119     -0.0000
        47         0.2789     -0.0929     -0.1237     -0.0008     -0.3738      0.0002
        48         0.0013     -0.0003     -0.0004      0.2536     -0.0012     -0.0737
        49         0.6024      0.2277      0.0844      0.0001     -0.0288      0.0000
        50         0.3291      0.0104      0.0547     -0.0004      0.0907     -0.0001
 <0|del|b> * <b|rxdel|0> + <0|del|b> * <b|delr+rdel|0>
 Rotatory Strengths (R) in cgs (10**-40 erg-esu-cm/Gauss)
       state          XX          YY          ZZ    R(velocity)    E-M Angle
         1       -14.4763    -68.2654     10.6920    -24.0166       92.06
         2         4.1371      7.1274      5.4204      5.5616       90.00
         3         8.8328     -0.0000      6.7552      5.1960       90.00
         4         0.3056     -4.9525      0.5695     -1.3592       97.06
         5       -49.1078     -0.0000     -4.2675    -17.7918       90.00
         6        33.5500      5.5017    -11.2102      9.2805       87.13
         7         0.2233     -0.0000     -1.3313     -0.3693       90.00
         8       -17.2368     -0.0000    -39.6188    -18.9518       90.00
         9        24.3830      7.3880     -2.7804      9.6635       78.68
        10         2.3515      0.0000      4.1390      2.1635       90.00
        11        -2.3825     -0.0000     -0.7286     -1.0370       90.00
        12        -0.0956    -58.1904    -14.3091    -24.1984      171.04
        13         0.4401     18.8061     24.7008     14.6490       11.83
        14        -2.2734    -24.3962     -3.6044    -10.0914       93.37
        15        -1.3036      0.0000     -0.1161     -0.4732       90.00
        16         0.7228      0.0000      0.1587      0.2938       90.00
        17        20.4046      0.0038      0.6462      7.0182        2.69
        18       111.0463     36.2154     26.3507     57.8708       62.96
        19       -39.0758     -8.1551      7.5761    -13.2183       94.03
        20       -58.4241      0.0000    -57.1877    -38.5372       90.00
        21       -59.8540     16.0105      0.1799    -14.5545      124.09
        22       -25.9350      0.0000     -0.7474     -8.8941       90.00
        23        -0.0205     12.4474      1.9322      4.7864       12.77
        24        -2.6680      0.0000      0.1046     -0.8545       90.00
        25       -39.4459     -5.3556     -0.2677    -15.0231      143.72
        26        27.3746      5.3589     -1.8151     10.3061        8.72
        27         0.3116     -0.0000      0.0676      0.1264       90.00
        28       -21.8567     -0.0123      0.2849     -7.1947      167.59
        29         0.6342    -98.3146      0.5472    -32.3778      101.29
        30       131.9712     90.9307    -29.3961     64.5020       85.44
        31         9.2634      0.0000      0.2021      3.1552       90.00
        32        -8.9235      0.0000     -2.0579     -3.6605       90.00
        33       -26.8352      0.0000      0.7452     -8.6967       90.00
        34        11.0075     -0.0001      2.1384      4.3820       90.00
        35       -15.3452    -52.7173    -34.2182    -34.0936       95.87
        36       151.0687     94.0714     18.9952     88.0451       50.16
        37       -19.2988     -0.0022      5.9654     -4.4452      169.64
        38         7.1227     -0.6141     -6.5878     -0.0264       90.00
        39       -27.4840    -30.2840     -8.3334    -22.0338      146.78
        40       -24.8072    -79.7453      7.6040    -32.3161      133.92
        41       121.6210    -31.8402      7.4257     32.4022       52.90
        42      -155.1685    186.1454     46.7975     25.9248       85.03
        43       -11.6897      0.0000     -6.8700     -6.1866       90.00
        44        -1.4043     -7.8722     -7.8560     -5.7108      111.22
        45         9.3373     -0.0000    -10.3473     -0.3367       90.00
        46        -2.0286     -0.0000      0.4591     -0.5232       90.00
        47       -58.2692     -0.0000      4.7706    -17.8329       90.00
        48         1.1674     -4.8553     -1.1480     -1.6120      173.87
        49         0.0522      0.0000      0.0180      0.0234       90.00
        50        10.9279     -0.0000      7.0051      5.9777       90.00
 1/2[<0|r|b>*<b|rxdel|0> + (<0|rxdel|b>*<b|r|0>)*]
 Rotatory Strengths (R) in cgs (10**-40 erg-esu-cm/Gauss)
       state          XX          YY          ZZ     R(length)
         1       -55.2500     -0.0000    -17.1386    -24.1296
         2         8.4869     -0.0000      7.1863      5.2244
         3        -0.0000     15.4603      0.0000      5.1534
         4        -1.8677     -0.0000     -2.3410     -1.4029
         5         0.0000    -51.7235     -0.0000    -17.2412
         6       -22.0443     -0.0000     48.8698      8.9418
         7        -0.0000     -1.1070      0.0000     -0.3690
         8        -0.0000    -55.9688     -0.0000    -18.6563
         9        -2.3896     -0.0000     36.5196     11.3766
        10        -0.0000      6.5970      0.0000      2.1990
        11        -0.0000     -3.3449      0.0000     -1.1150
        12       -72.8017     -0.0000     -1.6417    -24.8145
        13        44.3871     -0.0000     -0.2383     14.7163
        14       -28.1405      0.0000     -2.0564    -10.0656
        15         0.0000     -1.4182      0.0000     -0.4727
        16         0.0000      0.0136      0.0000      0.0045
        17         0.0086     21.9278      0.0090      7.3151
        18        81.9413      0.0023     85.8869     55.9435
        19        -7.0991      0.0000    -30.7304    -12.6098
        20         0.0000   -114.5363     -0.0000    -38.1788
        21         1.2301     -0.0000    -42.9232    -13.8977
        22        -0.0000    -26.3224      0.0000     -8.7741
        23         5.8620     -0.0000      7.8081      4.5567
        24         0.0000     -2.4776     -0.0000     -0.8259
        25        -0.9382     -0.0000    -44.6777    -15.2053
        26         2.8646     -0.0000     29.9004     10.9217
        27        -0.0000      0.4882     -0.0000      0.1627
        28        -0.0125    -22.9801      0.0005     -7.6640
        29      -100.3717     -0.0029      3.7995    -32.1917
        30        -8.2157      0.0000    201.5024     64.4289
        31        -0.0000      8.5426      0.0001      2.8475
        32         0.0000    -11.1318      0.0000     -3.7106
        33        -0.0000    -24.9637      0.0000     -8.3212
        34        -0.0002     11.9865      0.0000      3.9954
        35       -81.3533      0.0000     -8.9707    -30.1080
        36        84.2727     -0.0000    169.5354     84.6027
        37        -0.0340    -12.1509      0.0292     -4.0519
        38       -10.2330     -0.0393      8.7767     -0.4985
        39       -19.8960     -0.0000    -51.3798    -23.7586
        40       -52.0729     -0.0000    -45.7625    -32.6118
        41       -10.6327      0.0000    100.7340     30.0338
        42       161.7978     -0.0000    -80.5916     27.0687
        43         0.0000    -18.8005     -0.0000     -6.2668
        44       -18.6925      0.0000      2.1306     -5.5206
        45        -0.0000     -1.0051     -0.0000     -0.3350
        46        -0.0000     -1.5407      0.0000     -0.5136
        47        -0.0000    -52.8150     -0.0000    -17.6050
        48        -3.3415     -0.0006     -0.9269     -1.4230
        49         0.0000      0.0019     -0.0000      0.0006
        50        -0.0000     17.6951     -0.0000      5.8984
  1/2[<0|del|b>*<b|r|0> + (<0|r|b>*<b|del|0>)*] (Au)
       state          X           Y           Z        Dip. S.   Osc.(frdel)
         1        -1.8114     -0.0000     -0.0001      1.8115      1.2077
         2        -0.0006     -0.0000     -0.0005      0.0011      0.0008
         3        -0.0000     -0.0253     -0.0000      0.0253      0.0168
         4        -0.0076     -0.0000     -0.0000      0.0076      0.0051
         5        -0.0000     -0.0711     -0.0000      0.0711      0.0474
         6        -0.0611     -0.0000     -0.0005      0.0616      0.0411
         7        -0.0000     -0.0004     -0.0000      0.0004      0.0003
         8        -0.0000     -0.1292     -0.0000      0.1292      0.0861
         9        -0.0027     -0.0000     -0.0002      0.0028      0.0019
        10         0.0000     -0.0001     -0.0000      0.0001      0.0001
        11        -0.0000     -0.0001     -0.0000      0.0001      0.0001
        12        -0.0071     -0.0000     -0.0000      0.0071      0.0048
        13        -0.0113     -0.0000     -0.0000      0.0113      0.0075
        14        -0.4022     -0.0000     -0.0000      0.4022      0.2681
        15        -0.0000     -0.0005     -0.0000      0.0005      0.0003
        16        -0.0000     -0.0000     -0.0000      0.0000      0.0000
        17        -0.0000     -0.0081     -0.0000      0.0081      0.0054
        18        -0.0868     -0.0000     -0.0052      0.0920      0.0613
        19        -0.1419     -0.0000     -0.0004      0.1424      0.0949
        20        -0.0000     -0.2846     -0.0000      0.2846      0.1897
        21        -0.0057     -0.0000     -0.0028      0.0085      0.0057
        22        -0.0000     -0.0799     -0.0000      0.0799      0.0533
        23        -0.0009     -0.0000     -0.0020      0.0029      0.0019
        24        -0.0000     -0.0016     -0.0000      0.0016      0.0010
        25        -0.0003     -0.0000     -0.0004      0.0007      0.0004
        26        -0.0019     -0.0000     -0.0116      0.0134      0.0090
        27        -0.0000     -0.0000     -0.0000      0.0000      0.0000
        28        -0.0001     -0.0012     -0.0000      0.0013      0.0008
        29        -0.4384     -0.0000     -0.0000      0.4384      0.2923
        30        -0.4772     -0.0000     -0.0033      0.4805      0.3204
        31        -0.0000     -0.0001     -0.0000      0.0001      0.0001
        32        -0.0000     -0.0069     -0.0000      0.0069      0.0046
        33        -0.0000     -0.0206     -0.0000      0.0206      0.0137
        34        -0.0000     -0.0009     -0.0000      0.0009      0.0006
        35        -0.1269     -0.0000     -0.0000      0.1269      0.0846
        36        -0.0333     -0.0000     -0.0079      0.0412      0.0275
        37        -0.0001     -0.0019     -0.0000      0.0020      0.0013
        38        -0.0178     -0.0000     -0.0010      0.0188      0.0125
        39        -0.0048     -0.0000     -0.0032      0.0080      0.0053
        40        -0.0307     -0.0000     -0.0044      0.0350      0.0234
        41        -0.0106     -0.0000     -0.0086      0.0192      0.0128
        42        -0.4281     -0.0000     -0.0039      0.4320      0.2880
        43        -0.0000     -0.0009     -0.0000      0.0009      0.0006
        44        -0.0006     -0.0000     -0.0031      0.0037      0.0025
        45        -0.0000     -0.2368     -0.0000      0.2368      0.1579
        46        -0.0000     -0.0002     -0.0000      0.0002      0.0002
        47        -0.0000     -0.0136     -0.0000      0.0136      0.0090
        48        -0.0002     -0.0000     -0.0001      0.0003      0.0002
        49        -0.0000     -0.0000     -0.0000      0.0000      0.0000
        50        -0.0000     -0.0009      0.0000      0.0009      0.0006

 Excitation energies and oscillator strengths:
 
 Excited State   1:      Singlet-A      3.1397 eV  394.89 nm  f=1.2076  <S**2>=0.000
      89 -> 90         0.70472
 This state for optimization and/or second-order correction.
 Total Energy, E(TD-HF/TD-DFT) =  -1641.41715866    
 Copying the excited state density for this state as the 1-particle RhoCI density.
 
 Excited State   2:      Singlet-A      3.7846 eV  327.60 nm  f=0.0007  <S**2>=0.000
      89 -> 91         0.70090
 
 Excited State   3:      Singlet-A      4.0551 eV  305.75 nm  f=0.0167  <S**2>=0.000
      88 -> 90         0.59613
      89 -> 92        -0.35889
 
 Excited State   4:      Singlet-A      4.1935 eV  295.65 nm  f=0.0051  <S**2>=0.000
      87 -> 90         0.63432
      89 -> 93         0.28955
 
 Excited State   5:      Singlet-A      4.3349 eV  286.01 nm  f=0.0459  <S**2>=0.000
      88 -> 90         0.34933
      89 -> 92         0.59385
 
 Excited State   6:      Singlet-A      4.4693 eV  277.41 nm  f=0.0404  <S**2>=0.000
      87 -> 90        -0.28568
      89 -> 93         0.62393
 
 Excited State   7:      Singlet-A      4.5062 eV  275.14 nm  f=0.0003  <S**2>=0.000
      86 -> 90         0.66812
      89 -> 94        -0.18042
 
 Excited State   8:      Singlet-A      4.7276 eV  262.25 nm  f=0.0848  <S**2>=0.000
      86 -> 90         0.16086
      87 -> 92        -0.11922
      89 -> 94         0.64656
 
 Excited State   9:      Singlet-A      4.8765 eV  254.25 nm  f=0.0018  <S**2>=0.000
      89 -> 95         0.67382
 
 Excited State  10:      Singlet-A      4.8970 eV  253.19 nm  f=0.0001  <S**2>=0.000
      86 -> 91         0.16493
      88 -> 91         0.56987
      89 -> 97        -0.33208
 
 Excited State  11:      Singlet-A      5.0314 eV  246.42 nm  f=0.0001  <S**2>=0.000
      86 -> 91        -0.15011
      88 -> 91         0.38464
      89 -> 97         0.54415
      89 -> 98        -0.13640
 
 Excited State  12:      Singlet-A      5.0439 eV  245.81 nm  f=0.0049  <S**2>=0.000
      89 -> 96         0.68790
 
 Excited State  13:      Singlet-A      5.1151 eV  242.39 nm  f=0.0075  <S**2>=0.000
      87 -> 91         0.68376
      88 -> 97         0.12125
 
 Excited State  14:      Singlet-A      5.2929 eV  234.25 nm  f=0.2667  <S**2>=0.000
      85 -> 90         0.51664
      86 -> 92         0.16401
      87 -> 93         0.16013
      87 -> 95        -0.14632
      88 -> 92        -0.31484
      88 -> 94        -0.20525
 
 Excited State  15:      Singlet-A      5.3819 eV  230.37 nm  f=0.0003  <S**2>=0.000
      86 -> 91         0.66156
      89 -> 97         0.21566
 
 Excited State  16:      Singlet-A      5.4735 eV  226.52 nm  f=0.0000  <S**2>=0.000
      89 -> 97         0.15718
      89 -> 98         0.66386
 
 Excited State  17:      Singlet-A      5.5222 eV  224.52 nm  f=0.0056  <S**2>=0.000
      89 -> 97        -0.10145
      89 ->100         0.68105
 
 Excited State  18:      Singlet-A      5.5243 eV  224.44 nm  f=0.0612  <S**2>=0.000
      85 -> 90        -0.25439
      86 -> 92         0.10422
      88 -> 92        -0.24649
      89 -> 99         0.56577
 
 Excited State  19:      Singlet-A      5.5865 eV  221.93 nm  f=0.0959  <S**2>=0.000
      86 -> 92         0.30747
      87 -> 95        -0.14804
      88 -> 92         0.51314
      88 -> 94        -0.21659
      89 -> 99         0.19071
 
 Excited State  20:      Singlet-A      5.6085 eV  221.06 nm  f=0.1879  <S**2>=0.000
      84 -> 90        -0.15536
      86 -> 90         0.10413
      86 -> 93         0.32055
      86 -> 95         0.13153
      87 -> 92         0.40571
      87 -> 94         0.18728
      88 -> 93        -0.21704
      88 -> 95         0.15373
      89 -> 94         0.16210
 
 Excited State  21:      Singlet-A      5.6245 eV  220.43 nm  f=0.0055  <S**2>=0.000
      85 -> 90        -0.34387
      86 -> 92         0.36051
      86 -> 94        -0.14330
      88 -> 92        -0.13114
      88 -> 94        -0.22545
      89 -> 99        -0.34055
 
 Excited State  22:      Singlet-A      5.6930 eV  217.79 nm  f=0.0525  <S**2>=0.000
      84 -> 90         0.29560
      86 -> 93         0.27156
      87 -> 94         0.24082
      88 -> 93         0.44532
      88 -> 95         0.22668
 
 Excited State  23:      Singlet-A      5.7310 eV  216.34 nm  f=0.0018  <S**2>=0.000
      89 ->101         0.61127
      89 ->103        -0.30940
 
 Excited State  24:      Singlet-A      5.7683 eV  214.94 nm  f=0.0010  <S**2>=0.000
      86 -> 93        -0.20401
      87 -> 92         0.49336
      87 -> 94        -0.13704
      88 -> 93         0.40437
      88 -> 95        -0.13519
 
 Excited State  25:      Singlet-A      5.8462 eV  212.08 nm  f=0.0005  <S**2>=0.000
      83 -> 90        -0.25065
      86 -> 94        -0.18262
      87 -> 93         0.58420
      88 -> 92         0.15663
 
 Excited State  26:      Singlet-A      5.8667 eV  211.34 nm  f=0.0095  <S**2>=0.000
      89 ->101         0.31562
      89 ->103         0.60553
 
 Excited State  27:      Singlet-A      5.9080 eV  209.86 nm  f=0.0000  <S**2>=0.000
      84 -> 90         0.60164
      87 -> 92         0.21803
      88 -> 93        -0.23481
 
 Excited State  28:      Singlet-A      5.9942 eV  206.84 nm  f=0.0009  <S**2>=0.000
      89 -> 98         0.10219
      89 ->102         0.64333
      89 ->104         0.23708
 
 Excited State  29:      Singlet-A      5.9944 eV  206.83 nm  f=0.2918  <S**2>=0.000
      83 -> 90         0.58230
      86 -> 92        -0.20655
      87 -> 93         0.27078
      88 -> 94        -0.15294
 
 Excited State  30:      Singlet-A      6.0515 eV  204.88 nm  f=0.3209  <S**2>=0.000
      83 -> 90         0.24241
      86 -> 92         0.34001
      88 -> 94         0.53633
 
 Excited State  31:      Singlet-A      6.0572 eV  204.69 nm  f=0.0001  <S**2>=0.000
      89 ->102        -0.25032
      89 ->104         0.63250
 
 Excited State  32:      Singlet-A      6.1436 eV  201.81 nm  f=0.0047  <S**2>=0.000
      87 -> 94        -0.43908
      88 -> 95         0.51637
      88 -> 96        -0.14026
 
 Excited State  33:      Singlet-A      6.1914 eV  200.25 nm  f=0.0131  <S**2>=0.000
      89 ->105         0.68735
 
 Excited State  34:      Singlet-A      6.2077 eV  199.72 nm  f=0.0005  <S**2>=0.000
      86 -> 93         0.13977
      87 -> 94        -0.22940
      87 -> 97        -0.18519
      88 -> 96         0.58841
 
 Excited State  35:      Singlet-A      6.2149 eV  199.50 nm  f=0.0843  <S**2>=0.000
      86 -> 92         0.18412
      86 -> 94         0.23529
      87 -> 95         0.46722
      87 -> 96        -0.15552
      88 -> 97         0.31940
 
 Excited State  36:      Singlet-A      6.2524 eV  198.30 nm  f=0.0272  <S**2>=0.000
      86 -> 92        -0.12475
      86 -> 94        -0.19576
      87 -> 95        -0.23656
      87 -> 96        -0.25408
      88 -> 97         0.51598
      89 ->107         0.11953
 
 Excited State  37:      Singlet-A      6.2667 eV  197.85 nm  f=0.0012  <S**2>=0.000
      85 -> 92         0.13554
      86 -> 93         0.46484
      87 -> 94        -0.28969
      88 -> 95        -0.29293
      88 -> 96        -0.20592
 
 Excited State  38:      Singlet-A      6.2667 eV  197.84 nm  f=0.0124  <S**2>=0.000
      85 -> 91         0.56091
      86 -> 97         0.21558
      89 ->106        -0.31245
 
 Excited State  39:      Singlet-A      6.3157 eV  196.31 nm  f=0.0057  <S**2>=0.000
      85 -> 91         0.28577
      86 -> 97         0.13382
      89 ->106         0.56118
      89 ->107        -0.22056
 
 Excited State  40:      Singlet-A      6.3223 eV  196.11 nm  f=0.0239  <S**2>=0.000
      89 ->106         0.24182
      89 ->107         0.63054
 
 Excited State  41:      Singlet-A      6.3540 eV  195.13 nm  f=0.0121  <S**2>=0.000
      82 -> 90         0.13324
      86 -> 94         0.19535
      87 -> 96         0.47724
      88 -> 97         0.23848
      88 -> 98        -0.22856
      88 ->100         0.21302
 
 Excited State  42:      Singlet-A      6.4062 eV  193.54 nm  f=0.2854  <S**2>=0.000
      84 -> 92         0.11633
      85 -> 90        -0.11055
      86 -> 94         0.49051
      87 -> 93         0.11366
      87 -> 95        -0.31949
      87 -> 96        -0.19442
      88 -> 98         0.12781
 
 Excited State  43:      Singlet-A      6.4376 eV  192.60 nm  f=0.0006  <S**2>=0.000
      87 -> 97         0.64466
      87 -> 98        -0.13199
      88 -> 91        -0.11014
      88 -> 96         0.15929
 
 Excited State  44:      Singlet-A      6.4588 eV  191.96 nm  f=0.0023  <S**2>=0.000
      82 -> 90         0.67731
      87 -> 96        -0.11001
 
 Excited State  45:      Singlet-A      6.4752 eV  191.48 nm  f=0.1571  <S**2>=0.000
      86 -> 95         0.64006
 
 Excited State  46:      Singlet-A      6.5219 eV  190.11 nm  f=0.0002  <S**2>=0.000
      86 -> 96        -0.12454
      89 ->108         0.63062
      89 ->109         0.23122
 
 Excited State  47:      Singlet-A      6.5749 eV  188.57 nm  f=0.0089  <S**2>=0.000
      86 -> 96         0.38267
      89 ->108        -0.13705
      89 ->109         0.52870
      89 ->110         0.11612
 
 Excited State  48:      Singlet-A      6.5798 eV  188.43 nm  f=0.0002  <S**2>=0.000
      86 -> 97        -0.20873
      89 ->109        -0.13423
      89 ->110         0.60849
      89 ->111         0.10158
      89 ->115         0.10565
 
 Excited State  49:      Singlet-A      6.6114 eV  187.53 nm  f=0.0000  <S**2>=0.000
      84 -> 91        -0.10679
      86 -> 96         0.53593
      89 ->108         0.22993
      89 ->109        -0.33348
 
 Excited State  50:      Singlet-A      6.6263 eV  187.11 nm  f=0.0006  <S**2>=0.000
      83 -> 97        -0.10084
      84 -> 91         0.58745
      87 -> 98         0.17988
      88 ->101         0.22198
 SavETr:  write IOETrn=   770 NScale= 10 NData=  16 NLR=1 NState=   50 LETran=     910.

 **********************************************************************

            Population analysis using the SCF Density.

 **********************************************************************

 Orbital symmetries:
       Occupied  (A) (A) (A) (A) (A) (A) (A) (A) (A) (A) (A) (A)
                 (A) (A) (A) (A) (A) (A) (A) (A) (A) (A) (A) (A)
                 (A) (A) (A) (A) (A) (A) (A) (A) (A) (A) (A) (A)
                 (A) (A) (A) (A) (A) (A) (A) (A) (A) (A) (A) (A)
                 (A) (A) (A) (A) (A) (A) (A) (A) (A) (A) (A) (A)
                 (A) (A) (A) (A) (A) (A) (A) (A) (A) (A) (A) (A)
                 (A) (A) (A) (A) (A) (A) (A) (A) (A) (A) (A) (A)
                 (A) (A) (A) (A) (A)
       Virtual   (A) (A) (A) (A) (A) (A) (A) (A) (A) (A) (A) (A)
                 (A) (A) (A) (A) (A) (A) (A) (A) (A) (A) (A) (A)
                 (A) (A) (A) (A) (A) (A) (A) (A) (A) (A) (A) (A)
                 (A) (A) (A) (A) (A) (A) (A) (A) (A) (A) (A) (A)
                 (A) (A) (A) (A) (A) (A) (A) (A) (A) (A) (A) (A)
                 (A) (A) (A) (A) (A) (A) (A) (A) (A) (A) (A) (A)
                 (A) (A) (A) (A) (A) (A) (A) (A) (A) (A) (A) (A)
                 (A) (A) (A) (A) (A) (A) (A) (A) (A) (A) (A) (A)
                 (A) (A) (A) (A) (A) (A) (A) (A) (A) (A) (A) (A)
                 (A) (A) (A) (A) (A) (A) (A) (A) (A) (A) (A) (A)
                 (A) (A) (A) (A) (A) (A) (A) (A) (A) (A) (A) (A)
                 (A) (A) (A) (A) (A) (A) (A) (A) (A) (A) (A) (A)
                 (A) (A) (A) (A) (A) (A) (A) (A) (A) (A) (A) (A)
                 (A) (A) (A) (A) (A) (A) (A) (A) (A) (A) (A) (A)
                 (A) (A) (A) (A) (A) (A) (A) (A) (A) (A) (A) (A)
                 (A) (A) (A) (A) (A) (A) (A) (A) (A) (A) (A) (A)
                 (A) (A) (A) (A) (A) (A) (A) (A) (A) (A) (A) (A)
                 (A) (A) (A) (A) (A) (A) (A) (A) (A) (A) (A) (A)
                 (A) (A) (A) (A) (A) (A) (A) (A) (A) (A) (A) (A)
                 (A) (A) (A) (A) (A) (A) (A) (A) (A) (A) (A) (A)
                 (A) (A) (A) (A) (A) (A) (A) (A) (A) (A) (A) (A)
                 (A) (A) (A) (A) (A) (A) (A) (A) (A) (A) (A) (A)
                 (A) (A) (A) (A) (A) (A) (A) (A) (A) (A) (A) (A)
                 (A) (A) (A) (A) (A) (A) (A) (A) (A) (A) (A) (A)
                 (A) (A) (A) (A) (A) (A) (A) (A) (A) (A) (A) (A)
                 (A) (A) (A) (A) (A) (A) (A) (A) (A) (A) (A) (A)
                 (A) (A) (A) (A) (A) (A) (A) (A) (A) (A) (A) (A)
                 (A) (A) (A) (A) (A) (A) (A) (A) (A) (A) (A) (A)
                 (A) (A) (A) (A) (A) (A) (A) (A) (A) (A) (A) (A)
                 (A) (A) (A) (A) (A) (A) (A) (A) (A) (A) (A) (A)
                 (A) (A) (A) (A) (A) (A) (A) (A) (A) (A) (A) (A)
                 (A) (A) (A) (A) (A) (A) (A) (A) (A) (A) (A) (A)
                 (A) (A) (A) (A) (A) (A) (A) (A) (A) (A) (A) (A)
                 (A) (A) (A) (A) (A) (A) (A) (A) (A) (A) (A) (A)
                 (A) (A) (A) (A) (A) (A) (A) (A) (A) (A) (A) (A)
                 (A) (A) (A) (A) (A) (A) (A) (A) (A) (A) (A) (A)
                 (A) (A) (A) (A) (A) (A) (A) (A) (A) (A) (A) (A)
                 (A) (A) (A) (A) (A) (A) (A) (A) (A) (A) (A) (A)
                 (A) (A) (A) (A) (A) (A) (A) (A) (A) (A) (A) (A)
                 (A) (A) (A) (A) (A) (A) (A) (A) (A) (A) (A) (A)
                 (A) (A) (A) (A) (A) (A) (A) (A) (A) (A) (A) (A)
                 (A) (A) (A) (A) (A) (A) (A) (A) (A) (A) (A) (A)
                 (A) (A) (A) (A) (A) (A) (A) (A) (A) (A) (A) (A)
                 (A) (A) (A) (A) (A) (A) (A) (A) (A) (A) (A) (A)
                 (A) (A) (A) (A) (A) (A) (A) (A) (A) (A) (A) (A)
                 (A) (A) (A) (A) (A) (A) (A) (A) (A) (A) (A) (A)
                 (A) (A) (A) (A) (A) (A) (A) (A) (A) (A) (A) (A)
                 (A) (A) (A) (A) (A) (A) (A) (A) (A) (A) (A) (A)
                 (A) (A) (A) (A) (A) (A) (A) (A) (A) (A) (A) (A)
                 (A) (A) (A) (A) (A) (A) (A) (A) (A) (A) (A) (A)
                 (A) (A) (A) (A) (A) (A) (A) (A) (A) (A) (A) (A)
                 (A) (A) (A) (A) (A) (A) (A) (A) (A) (A) (A) (A)
                 (A) (A) (A) (A) (A) (A) (A) (A) (A) (A) (A) (A)
                 (A) (A) (A) (A) (A) (A) (A) (A) (A) (A) (A) (A)
                 (A) (A) (A) (A) (A) (A) (A) (A)
 The electronic state is 1-A.
 Alpha  occ. eigenvalues --  -88.90962 -88.90962 -14.40317 -14.40316 -10.29304
 Alpha  occ. eigenvalues --  -10.29302 -10.24535 -10.24535 -10.23229 -10.23229
 Alpha  occ. eigenvalues --  -10.22400 -10.22400 -10.20149 -10.19825 -10.19825
 Alpha  occ. eigenvalues --  -10.19513 -10.19513 -10.18993 -10.18992 -10.18762
[...]
    24  H    0.000005   0.000723  -0.002092  -0.002479   0.000005   0.000723
    25  H   -0.037984   0.033270  -0.007689  -0.000007   0.000000   0.000000
    26  H    0.431608  -0.061835   0.007998   0.000000   0.000000  -0.000000
    27  H   -0.070387   0.417909  -0.014376  -0.000000  -0.000000  -0.000000
    28  H    0.012805  -0.021736   0.438085   0.000000  -0.000000  -0.000000
    29  H    0.000000   0.000000   0.000001   0.350001  -0.037986   0.033269
    30  H    0.000000  -0.000000  -0.000000  -0.020807   0.431606  -0.061836
    31  H   -0.000000  -0.000000   0.000000   0.006794  -0.070386   0.417906
    32  H   -0.000000  -0.000000  -0.000000   0.005100   0.012804  -0.021740
    33  H   -0.000327   0.002171   0.007127   0.000126   0.000005  -0.000017
    34  H    0.001374   0.015328   0.020253  -0.000004  -0.000000   0.000001
    35  H    0.000952   0.004437   0.019125  -0.000005  -0.000000   0.000000
    36  H    0.000183  -0.000656   0.001083  -0.000016  -0.000001   0.000004
    37  H   -0.000159  -0.000569  -0.006655   0.000001   0.000000  -0.000001
    38  H    0.000005  -0.000017  -0.000150  -0.002385  -0.000328   0.002173
    39  H   -0.000000   0.000001  -0.000002  -0.001996   0.001374   0.015320
    40  H   -0.000000   0.000000   0.000001   0.001691   0.000952   0.004441
    41  H   -0.000001   0.000004  -0.000001   0.000837   0.000183  -0.000656
    42  H    0.000000  -0.000001  -0.000002  -0.000251  -0.000159  -0.000570
              19         20         21         22         23         24
     1  C    0.014371  -0.245116  -0.000777  -0.055958   0.018142  -0.006722
     2  C   -0.017712  -0.011769   0.037107  -0.011794   0.037107   0.352757
     3  C   -0.177026  -0.055986   0.018152  -0.245083  -0.000790  -0.006714
     4  N   -0.183648   0.001163   0.002237   0.202108   0.032008  -0.015974
     5  S   -0.009863   0.027227  -0.074031   0.013040   0.020342   0.024641
     6  C   -0.000688   0.043126  -0.012169  -0.005670   0.003906  -0.008740
     7  C    0.000788   0.062689  -0.101790  -0.012274   0.003205  -0.005024
     8  N   -0.000029   0.202181   0.032010   0.001174   0.002233  -0.015976
     9  S    0.034000   0.013063   0.020342   0.027211  -0.074022   0.024649
    10  C   -0.041318  -0.005678   0.003910   0.043094  -0.012157  -0.008745
    11  C   -0.226575  -0.012284   0.003208   0.062725  -0.101813  -0.005025
    12  C   -0.000540   0.046640  -0.005943  -0.001520   0.001073  -0.002478
    13  C   -0.000053  -0.002695  -0.001466  -0.000012   0.000072   0.000005
    14  C    0.000064  -0.074054   0.006176   0.000254  -0.000067   0.000723
    15  C   -0.000252  -0.047861   0.021374   0.002335  -0.000173  -0.002092
    16  C    0.326473  -0.001522   0.001074   0.046647  -0.005937  -0.002479
    17  C    0.099692  -0.000012   0.000072  -0.002684  -0.001467   0.000005
    18  C    0.392935   0.000255  -0.000068  -0.074084   0.006189   0.000723
    19  C    5.672554   0.002337  -0.000173  -0.047869   0.021394  -0.002094
    20  C    0.002337   5.628143  -0.016427  -0.013864   0.002136   0.002366
    21  C   -0.000173  -0.016427   5.334192   0.002137  -0.001470  -0.007846
    22  C   -0.047869  -0.013864   0.002137   5.628219  -0.016402   0.002348
    23  C    0.021394   0.002136  -0.001470  -0.016402   5.334155  -0.007843
    24  H   -0.002094   0.002366  -0.007846   0.002348  -0.007843   0.523177
    25  H    0.000001  -0.000028   0.000133  -0.000002   0.000000   0.000002
    26  H   -0.000000   0.000037   0.000027   0.000000  -0.000000   0.000000
    27  H    0.000000   0.000664  -0.000012  -0.000000   0.000000  -0.000000
    28  H   -0.000000   0.000075  -0.002319  -0.000002   0.000001  -0.000020
    29  H   -0.007690  -0.000002   0.000000  -0.000028   0.000133   0.000002
    30  H    0.008000   0.000000  -0.000000   0.000037   0.000027   0.000000
    31  H   -0.014374  -0.000000   0.000000   0.000664  -0.000012  -0.000000
    32  H    0.438087  -0.000002   0.000001   0.000076  -0.002319  -0.000020
    33  H   -0.000150   0.389954  -0.023020   0.006256  -0.003394  -0.000247
    34  H   -0.000002   0.398274  -0.035400   0.000341  -0.000131   0.000511
    35  H    0.000001  -0.049465   0.427356   0.000227  -0.000093   0.000164
    36  H   -0.000001  -0.038818   0.417326  -0.002875   0.000997  -0.000666
    37  H   -0.000002  -0.030626   0.402933   0.000019  -0.000162   0.000182
    38  H    0.007130   0.006257  -0.003395   0.389953  -0.023021  -0.000247
    39  H    0.020256   0.000341  -0.000132   0.398266  -0.035398   0.000511
    40  H    0.019132   0.000227  -0.000093  -0.049466   0.427359   0.000164
    41  H    0.001083  -0.002873   0.000996  -0.038820   0.417327  -0.000666
    42  H   -0.006654   0.000019  -0.000162  -0.030623   0.402930   0.000182
              25         26         27         28         29         30
     1  C    0.005432  -0.000257  -0.002043   0.012737  -0.001033   0.000008
     2  C    0.000919   0.000069  -0.000113   0.000589   0.000919   0.000069
     3  C   -0.001033   0.000008  -0.000005   0.000270   0.005433  -0.000257
     4  N   -0.000002   0.000000  -0.000000   0.000001   0.002271   0.000644
     5  S   -0.006466   0.000599  -0.000585  -0.002941   0.000799   0.000020
     6  C   -0.009830  -0.021278   0.010567  -0.004013   0.000087  -0.000000
     7  C    0.009036   0.011695  -0.001569  -0.088123   0.000002  -0.000000
     8  N    0.002271   0.000644  -0.000141  -0.002778  -0.000002   0.000000
     9  S    0.000799   0.000020  -0.000017   0.000007  -0.006465   0.000599
    10  C    0.000087  -0.000000   0.000000   0.000001  -0.009828  -0.021279
    11  C    0.000002  -0.000000   0.000000   0.000000   0.009036   0.011695
    12  C    0.350002  -0.020807   0.006795   0.005099  -0.000007   0.000000
    13  C   -0.037984   0.431608  -0.070387   0.012805   0.000000   0.000000
    14  C    0.033270  -0.061835   0.417909  -0.021736   0.000000  -0.000000
    15  C   -0.007689   0.007998  -0.014376   0.438085   0.000001  -0.000000
    16  C   -0.000007   0.000000  -0.000000   0.000000   0.350001  -0.020807
    17  C    0.000000   0.000000  -0.000000  -0.000000  -0.037986   0.431606
    18  C    0.000000  -0.000000  -0.000000  -0.000000   0.033269  -0.061836
    19  C    0.000001  -0.000000   0.000000  -0.000000  -0.007690   0.008000
    20  C   -0.000028   0.000037   0.000664   0.000075  -0.000002   0.000000
    21  C    0.000133   0.000027  -0.000012  -0.002319   0.000000  -0.000000
    22  C   -0.000002   0.000000  -0.000000  -0.000002  -0.000028   0.000037
    23  C    0.000000  -0.000000   0.000000   0.000001   0.000133   0.000027
    24  H    0.000002   0.000000  -0.000000  -0.000020   0.000002   0.000000
    25  H    0.510690  -0.004394  -0.000300   0.000050   0.000000  -0.000000
    26  H   -0.004394   0.524828  -0.004741  -0.000277  -0.000000  -0.000000
    27  H   -0.000300  -0.004741   0.527777  -0.005204   0.000000   0.000000
    28  H    0.000050  -0.000277  -0.005204   0.507753  -0.000000  -0.000000
    29  H    0.000000  -0.000000   0.000000  -0.000000   0.510690  -0.004394
    30  H   -0.000000  -0.000000   0.000000  -0.000000  -0.004394   0.524828
    31  H    0.000000   0.000000  -0.000000  -0.000000  -0.000300  -0.004741
    32  H   -0.000000  -0.000000  -0.000000   0.000000   0.000050  -0.000277
    33  H   -0.000000  -0.000000  -0.000000   0.000080   0.000000  -0.000000
    34  H    0.000001  -0.000000   0.000027   0.000920   0.000000   0.000000
    35  H   -0.000001  -0.000000  -0.000002  -0.000269   0.000000  -0.000000
    36  H    0.000000  -0.000000   0.000000   0.000007   0.000000   0.000000
    37  H    0.000000   0.000000  -0.000001   0.000130   0.000000  -0.000000
    38  H    0.000000  -0.000000   0.000000   0.000000  -0.000000  -0.000000
    39  H    0.000000   0.000000  -0.000000  -0.000000   0.000001  -0.000000
    40  H    0.000000  -0.000000   0.000000   0.000000  -0.000001  -0.000000
    41  H    0.000000   0.000000  -0.000000  -0.000000   0.000000  -0.000000
    42  H    0.000000  -0.000000   0.000000  -0.000000   0.000000   0.000000
              31         32         33         34         35         36
     1  C   -0.000005   0.000270   0.003915   0.007598  -0.009932  -0.008337
     2  C   -0.000113   0.000589   0.018816  -0.003671   0.004756   0.009352
     3  C   -0.002043   0.012737   0.016341  -0.000705  -0.001334  -0.002907
     4  N   -0.000141  -0.002778  -0.000285  -0.000074  -0.000009   0.000128
     5  S   -0.000017   0.000007  -0.007893   0.002674  -0.002752  -0.002185
     6  C    0.000000   0.000001  -0.012544  -0.001055   0.004920   0.006812
     7  C    0.000000   0.000000  -0.021874  -0.014154  -0.022760  -0.002974
     8  N   -0.000000   0.000001  -0.028348  -0.041187   0.008103   0.006490
     9  S   -0.000585  -0.002941   0.002194  -0.000588  -0.000127  -0.000134
    10  C    0.010566  -0.004014   0.001150  -0.000030  -0.000053  -0.000201
    11  C   -0.001568  -0.088122   0.001510   0.000005  -0.000033  -0.000118
    12  C   -0.000000   0.000000  -0.002384  -0.001998   0.001692   0.000837
    13  C   -0.000000  -0.000000  -0.000327   0.001374   0.000952   0.000183
    14  C   -0.000000  -0.000000   0.002171   0.015328   0.004437  -0.000656
    15  C    0.000000  -0.000000   0.007127   0.020253   0.019125   0.001083
    16  C    0.006794   0.005100   0.000126  -0.000004  -0.000005  -0.000016
    17  C   -0.070386   0.012804   0.000005  -0.000000  -0.000000  -0.000001
    18  C    0.417906  -0.021740  -0.000017   0.000001   0.000000   0.000004
    19  C   -0.014374   0.438087  -0.000150  -0.000002   0.000001  -0.000001
    20  C   -0.000000  -0.000002   0.389954   0.398274  -0.049465  -0.038818
    21  C    0.000000   0.000001  -0.023020  -0.035400   0.427356   0.417326
    22  C    0.000664   0.000076   0.006256   0.000341   0.000227  -0.002875
    23  C   -0.000012  -0.002319  -0.003394  -0.000131  -0.000093   0.000997
    24  H   -0.000000  -0.000020  -0.000247   0.000511   0.000164  -0.000666
    25  H    0.000000  -0.000000  -0.000000   0.000001  -0.000001   0.000000
    26  H    0.000000  -0.000000  -0.000000  -0.000000  -0.000000  -0.000000
    27  H   -0.000000  -0.000000  -0.000000   0.000027  -0.000002   0.000000
    28  H   -0.000000   0.000000   0.000080   0.000920  -0.000269   0.000007
    29  H   -0.000300   0.000050   0.000000   0.000000   0.000000   0.000000
    30  H   -0.004741  -0.000277  -0.000000   0.000000  -0.000000   0.000000
    31  H    0.527776  -0.005204   0.000000  -0.000000   0.000000  -0.000000
    32  H   -0.005204   0.507749   0.000000  -0.000000   0.000000  -0.000000
    33  H    0.000000   0.000000   0.521516  -0.024368   0.004953  -0.006332
    34  H   -0.000000  -0.000000  -0.024368   0.521607  -0.006385   0.005413
    35  H    0.000000   0.000000   0.004953  -0.006385   0.520543  -0.030662
    36  H   -0.000000  -0.000000  -0.006332   0.005413  -0.030662   0.520978
    37  H    0.000000  -0.000000  -0.002114  -0.001618  -0.024449  -0.024588
    38  H   -0.000000   0.000080  -0.000816  -0.000016  -0.000004   0.000501
    39  H    0.000027   0.000920  -0.000016  -0.000000   0.000000   0.000005
    40  H   -0.000002  -0.000269  -0.000004   0.000000   0.000000   0.000001
    41  H    0.000000   0.000007   0.000501   0.000005   0.000001  -0.000009
    42  H   -0.000001   0.000130  -0.000040  -0.000000   0.000000   0.000004
              37         38         39         40         41         42
     1  C    0.006460   0.016352  -0.000709  -0.001332  -0.002909  -0.000139
     2  C   -0.006152   0.018816  -0.003667   0.004755   0.009351  -0.006150
     3  C   -0.000139   0.003929   0.007589  -0.009931  -0.008334   0.006458
     4  N   -0.000059  -0.028350  -0.041187   0.008107   0.006489   0.001174
     5  S    0.002219   0.002195  -0.000588  -0.000127  -0.000134  -0.000204
     6  C   -0.002080   0.001151  -0.000030  -0.000053  -0.000201   0.000031
     7  C    0.010520   0.001510   0.000005  -0.000033  -0.000117  -0.000035
     8  N    0.001170  -0.000286  -0.000074  -0.000009   0.000128  -0.000059
     9  S   -0.000204  -0.007897   0.002675  -0.002751  -0.002183   0.002218
    10  C    0.000031  -0.012549  -0.001049   0.004919   0.006813  -0.002078
    11  C   -0.000035  -0.021886  -0.014142  -0.022774  -0.002974   0.010518
    12  C   -0.000251   0.000126  -0.000004  -0.000005  -0.000016   0.000001
    13  C   -0.000159   0.000005  -0.000000  -0.000000  -0.000001   0.000000
    14  C   -0.000569  -0.000017   0.000001   0.000000   0.000004  -0.000001
    15  C   -0.006655  -0.000150  -0.000002   0.000001  -0.000001  -0.000002
    16  C    0.000001  -0.002385  -0.001996   0.001691   0.000837  -0.000251
    17  C    0.000000  -0.000328   0.001374   0.000952   0.000183  -0.000159
    18  C   -0.000001   0.002173   0.015320   0.004441  -0.000656  -0.000570
    19  C   -0.000002   0.007130   0.020256   0.019132   0.001083  -0.006654
    20  C   -0.030626   0.006257   0.000341   0.000227  -0.002873   0.000019
    21  C    0.402933  -0.003395  -0.000132  -0.000093   0.000996  -0.000162
    22  C    0.000019   0.389953   0.398266  -0.049466  -0.038820  -0.030623
    23  C   -0.000162  -0.023021  -0.035398   0.427359   0.417327   0.402930
    24  H    0.000182  -0.000247   0.000511   0.000164  -0.000666   0.000182
    25  H    0.000000   0.000000   0.000000   0.000000   0.000000   0.000000
    26  H    0.000000  -0.000000   0.000000  -0.000000   0.000000  -0.000000
    27  H   -0.000001   0.000000  -0.000000   0.000000  -0.000000   0.000000
    28  H    0.000130   0.000000  -0.000000   0.000000  -0.000000  -0.000000
    29  H    0.000000  -0.000000   0.000001  -0.000001   0.000000   0.000000
    30  H   -0.000000  -0.000000  -0.000000  -0.000000  -0.000000   0.000000
    31  H    0.000000  -0.000000   0.000027  -0.000002   0.000000  -0.000001
    32  H   -0.000000   0.000080   0.000920  -0.000269   0.000007   0.000130
    33  H   -0.002114  -0.000816  -0.000016  -0.000004   0.000501  -0.000040
    34  H   -0.001618  -0.000016  -0.000000   0.000000   0.000005  -0.000000
    35  H   -0.024449  -0.000004   0.000000   0.000000   0.000001   0.000000
    36  H   -0.024588   0.000501   0.000005   0.000001  -0.000009   0.000004
    37  H    0.524334  -0.000040  -0.000000   0.000000   0.000004   0.000001
    38  H   -0.000040   0.521509  -0.024367   0.004953  -0.006331  -0.002116
    39  H   -0.000000  -0.024367   0.521607  -0.006386   0.005413  -0.001618
    40  H    0.000000   0.004953  -0.006386   0.520542  -0.030662  -0.024450
    41  H    0.000004  -0.006331   0.005413  -0.030662   0.520976  -0.024588
    42  H    0.000001  -0.002116  -0.001618  -0.024450  -0.024588   0.524335
 Mulliken charges:
               1
     1  C    0.426084
     2  C   -0.407728
     3  C    0.426006
     4  N    0.166111
     5  S   -0.549454
     6  C    0.557198
     7  C    0.486566
     8  N    0.166068
     9  S   -0.549463
    10  C    0.557234
    11  C    0.486505
    12  C   -0.368781
    13  C   -0.236389
    14  C   -0.221788
    15  C   -0.321633
    16  C   -0.368712
    17  C   -0.236400
    18  C   -0.221823
    19  C   -0.321583
    20  C   -0.218091
    21  C   -0.444072
    22  C   -0.218102
    23  C   -0.444066
    24  H    0.166503
    25  H    0.155042
    26  H    0.136058
    27  H    0.135756
    28  H    0.149071
    29  H    0.155042
    30  H    0.136059
    31  H    0.135756
    32  H    0.149075
    33  H    0.157559
    34  H    0.157055
    35  H    0.151104
    36  H    0.151357
    37  H    0.151901
    38  H    0.157559
    39  H    0.157055
    40  H    0.151104
    41  H    0.151358
    42  H    0.151900
 Sum of Mulliken charges =   1.00000
 Mulliken charges with hydrogens summed into heavy atoms:
               1
     1  C    0.426084
     2  C   -0.241225
     3  C    0.426006
     4  N    0.166111
     5  S   -0.549454
     6  C    0.557198
     7  C    0.486566
     8  N    0.166068
     9  S   -0.549463
    10  C    0.557234
    11  C    0.486505
    12  C   -0.213740
    13  C   -0.100331
    14  C   -0.086032
    15  C   -0.172561
    16  C   -0.213669
    17  C   -0.100342
    18  C   -0.086067
    19  C   -0.172508
    20  C    0.096522
    21  C    0.010291
    22  C    0.096512
    23  C    0.010295
 Electronic spatial extent (au):  <R**2>=          10370.1893
 Charge=              1.0000 electrons
 Dipole moment (field-independent basis, Debye):
    X=              0.0001    Y=              5.3657    Z=              0.0001  Tot=              5.3657
 Quadrupole moment (field-independent basis, Debye-Ang):
   XX=            -71.0035   YY=           -110.0988   ZZ=           -154.8490
   XY=             -0.0003   XZ=              2.1521   YZ=             -0.0005
 Traceless Quadrupole moment (field-independent basis, Debye-Ang):
   XX=             40.9803   YY=              1.8850   ZZ=            -42.8653
   XY=             -0.0003   XZ=              2.1521   YZ=             -0.0005
 Octapole moment (field-independent basis, Debye-Ang**2):
  XXX=              0.0020  YYY=             22.7449  ZZZ=              0.0003  XYY=             -0.0003
  XXY=              3.3522  XXZ=              0.0024  XZZ=             -0.0001  YZZ=             14.9244
  YYZ=              0.0017  XYZ=              6.9193
 Hexadecapole moment (field-independent basis, Debye-Ang**3):
 XXXX=          -8729.6312 YYYY=          -2349.2001 ZZZZ=           -344.1333 XXXY=             -0.0063
 XXXZ=             76.8335 YYYX=             -0.0079 YYYZ=             -0.0038 ZZZX=             -9.9943
 ZZZY=              0.0014 XXYY=          -1856.7876 XXZZ=          -2141.9947 YYZZ=           -523.6557
 XXYZ=             -0.0139 YYXZ=              2.0577 ZZXY=              0.0003
 N-N= 2.127852619795D+03 E-N=-8.086779395349D+03  KE= 1.636261271360D+03
 Unable to Open any file for archive entry.
 1\1\GINC-ZCWANG-VIRTUAL-MACHINE\SP\RB3LYP TD-FC\6-311+G(2d,p)\C19H19N2
 S2(1+)\ZCWANG\28-Oct-2023\0\\# td=(nstates=50) b3lyp/6-311+g(2d,p) scr
 f(smd, solvent=ethanol)\\A-1\\1,1\C,0,-1.259214,0.216698,-0.039367\C,0
 ,0.000003,0.828935,-0.000122\C,0,1.259209,0.216684,0.039249\N,0,2.4334
 64,0.904848,0.145998\S,0,-1.557561,-1.512152,0.053882\C,0,-3.297665,-1
 .258824,-0.027283\C,0,-3.589904,0.108866,-0.118299\N,0,-2.433474,0.904
 863,-0.146106\S,0,1.557549,-1.512171,-0.053923\C,0,3.297657,-1.25885,0
 .027304\C,0,3.5899,0.108842,0.118251\C,0,-4.301571,-2.224422,-0.003624
 \C,0,-5.624645,-1.792125,-0.066975\C,0,-5.925643,-0.425687,-0.149009\C
 ,0,-4.920394,0.538274,-0.174272\C,0,4.301563,-2.22445,0.003718\C,0,5.6
 24635,-1.792149,0.067066\C,0,5.925635,-0.425707,0.149021\C,0,4.920384,
 0.538258,0.174213\C,0,-2.510348,2.373529,-0.257226\C,0,-2.566433,3.073
 786,1.101522\C,0,2.510339,2.373497,0.257299\C,0,2.566508,3.073929,-1.1
 01357\H,0,0.000014,1.90904,-0.000214\H,0,-4.060576,-3.280313,0.063971\
 H,0,-6.427238,-2.522132,-0.049094\H,0,-6.962056,-0.106514,-0.191342\H,
 0,-5.176748,1.590213,-0.22813\H,0,4.060566,-3.280345,-0.063815\H,0,6.4
 2723,-2.522156,0.049231\H,0,6.962048,-0.106532,0.191339\H,0,5.176733,1
 .590201,0.228019\H,0,-1.657488,2.708489,-0.852128\H,0,-3.398115,2.5971
 74,-0.852215\H,0,-3.441185,2.752064,1.674572\H,0,-1.673838,2.863356,1.
 699082\H,0,-2.63423,4.156364,0.954302\H,0,1.657436,2.708379,0.852183\H
 ,0,3.398074,2.597059,0.85237\H,0,3.441334,2.752344,-1.674368\H,0,1.673
 988,2.86351,-1.699033\H,0,2.634214,4.156493,-0.95399\\Version=ES64L-G1
 6RevC.02\State=1-A\HF=-1641.5325397\RMSD=5.742e-09\PG=C01 [X(C19H19N2S
 2)]\\@
 The archive entry for this job was punched.


 FOR THE NATURE OF THE CHEMICAL BOND
 IS THE PROBLEM AT THE HEART OF ALL CHEMISTRY.

                     -- BRYCE CRAWFORD, JR., 1953
 Job cpu time:       2 days 15 hours 24 minutes  4.6 seconds.
 Elapsed time:       0 days  6 hours  3 minutes 18.8 seconds.
 File lengths (MBytes):  RWF=   8036 Int=      0 D2E=      0 Chk=    811 Scr=      1
 Normal termination of Gaussian 16 at Sat Oct 28 22:41:13 2023.
