 Entering Gaussian System, Link 0=g16
 Initial command:
 /nfs-share/home/2100011873/Gaussian16_AVX2/g16/l1.exe "/nfs-share/home/2100011873/GaussTmp/Gau-200318.inp" -scrdir="/nfs-share/home/2100011873/GaussTmp/"
 Entering Link 1 = /nfs-share/home/2100011873/Gaussian16_AVX2/g16/l1.exe PID=    200319.
  
 Copyright (c) 1988-2021, Gaussian, Inc.  All Rights Reserved.
  
 This is part of the Gaussian(R) 16 program.  It is based on
 the Gaussian(R) 09 system (copyright 2009, Gaussian, Inc.),
 the Gaussian(R) 03 system (copyright 2003, Gaussian, Inc.),
 the Gaussian(R) 98 system (copyright 1998, Gaussian, Inc.),
 the Gaussian(R) 94 system (copyright 1995, Gaussian, Inc.),
 the Gaussian 92(TM) system (copyright 1992, Gaussian, Inc.),
 the Gaussian 90(TM) system (copyright 1990, Gaussian, Inc.),
 the Gaussian 88(TM) system (copyright 1988, Gaussian, Inc.),
 the Gaussian 86(TM) system (copyright 1986, Carnegie Mellon
 University), and the Gaussian 82(TM) system (copyright 1983,
 Carnegie Mellon University). Gaussian is a federally registered
 trademark of Gaussian, Inc.
  
 This software contains proprietary and confidential information,
 including trade secrets, belonging to Gaussian, Inc.
  
 This software is provided under written license and may be
 used, copied, transmitted, or stored only in accord with that
 written license.
  
 The following legend is applicable only to US Government
 contracts under FAR:
  
                    RESTRICTED RIGHTS LEGEND
  
 Use, reproduction and disclosure by the US Government is
 subject to restrictions as set forth in subparagraphs (a)
 and (c) of the Commercial Computer Software - Restricted
 Rights clause in FAR 52.227-19.
  
 Gaussian, Inc.
 340 Quinnipiac St., Bldg. 40, Wallingford CT 06492
  
  
 ---------------------------------------------------------------
 Warning -- This program may not be used in any manner that
 competes with the business of Gaussian, Inc. or will provide
 assistance to any competitor of Gaussian, Inc.  The licensee
 of this program is prohibited from giving any competitor of
 Gaussian, Inc. access to this program.  By using this program,
 the user acknowledges that Gaussian, Inc. is engaged in the
 business of creating and licensing software in the field of
 computational chemistry and represents and warrants to the
 licensee that it is not a competitor of Gaussian, Inc. and that
 it will not use this program in any manner prohibited above.
 ---------------------------------------------------------------
  

 Cite this work as:
 Gaussian 16, Revision C.02,
 M. J. Frisch, G. W. Trucks, H. B. Schlegel, G. E. Scuseria, 
 M. A. Robb, J. R. Cheeseman, G. Scalmani, V. Barone, 
 G. A. Petersson, H. Nakatsuji, X. Li, M. Caricato, A. V. Marenich, 
 J. Bloino, B. G. Janesko, R. Gomperts, B. Mennucci, H. P. Hratchian, 
 J. V. Ortiz, A. F. Izmaylov, J. L. Sonnenberg, D. Williams-Young, 
 F. Ding, F. Lipparini, F. Egidi, J. Goings, B. Peng, A. Petrone, 
 T. Henderson, D. Ranasinghe, V. G. Zakrzewski, J. Gao, N. Rega, 
 G. Zheng, W. Liang, M. Hada, M. Ehara, K. Toyota, R. Fukuda, 
 J. Hasegawa, M. Ishida, T. Nakajima, Y. Honda, O. Kitao, H. Nakai, 
 T. Vreven, K. Throssell, J. A. Montgomery, Jr., J. E. Peralta, 
 F. Ogliaro, M. J. Bearpark, J. J. Heyd, E. N. Brothers, K. N. Kudin, 
 V. N. Staroverov, T. A. Keith, R. Kobayashi, J. Normand, 
 K. Raghavachari, A. P. Rendell, J. C. Burant, S. S. Iyengar, 
 J. Tomasi, M. Cossi, J. M. Millam, M. Klene, C. Adamo, R. Cammi, 
 J. W. Ochterski, R. L. Martin, K. Morokuma, O. Farkas, 
 J. B. Foresman, and D. J. Fox, Gaussian, Inc., Wallingford CT, 2019.
 
 ******************************************
 Gaussian 16:  ES64L-G16RevC.02  7-Dec-2021
                 4-Nov-2023 
 ******************************************
 %nprocshared=32
 Will use up to   32 processors via shared memory.
 %mem=128GB
 ----------------------------------------------------------------
 # td=(nstates=150) CAM-b3lyp/def2TZVP scrf(smd, solvent=ethanol)
 ----------------------------------------------------------------
 1/38=1,172=1/1;
 2/12=2,17=6,18=5,40=1/2;
 3/5=44,7=101,11=9,25=1,30=1,70=32201,72=4,74=-40/1,2,3,8;
 4//1;
 5/5=2,38=5,53=4/2;
 8/6=1,10=1,108=150/1;
 9/41=150,42=1,70=2/14;
 6/7=2,8=2,9=2,10=2/1;
 99/5=1,9=1/99;
 ---
 A-2
 ---
 Symbolic Z-matrix:
 Charge =  1 Multiplicity = 1
 C                     1.18593   1.12419   0.25907 
 C                    -0.06404   0.51889   0.18474 
 C                    -1.25506   1.23243   0.20607 
 C                    -2.57691   0.77597   0.13437 
 C                     2.39263   0.43147   0.17128 
 S                    -3.82767   1.97001  -0.18708 
 C                    -5.07788   0.74479  -0.13478 
 C                    -4.5092   -0.50864   0.11385 
 N                    -3.11837  -0.45818   0.27972 
 S                     2.5052   -1.30012  -0.12511 
 C                     4.26032  -1.22576  -0.10255 
 C                     4.68878   0.08701   0.11942 
 N                     3.62751   0.98166   0.28741 
 C                     5.15932  -2.26746  -0.2795 
 C                     6.51791  -1.9736   -0.23726 
 C                     6.95394  -0.66384  -0.02533 
 C                     6.05157   0.37821   0.15346 
 C                    -6.4468    0.90418  -0.30422 
 C                    -7.25123  -0.22611  -0.22641 
 C                    -6.68975  -1.48249   0.01487 
 C                    -5.32005  -1.6405    0.18625 
 C                     3.84714   2.41567   0.55458 
 C                     3.91176   3.24964  -0.71763 
 C                    -2.36937  -1.66031   0.69242 
 C                    -1.91885  -2.52299  -0.47911 
 H                     1.22885   2.1992    0.37656 
 H                    -0.09664  -0.55695   0.07224 
 H                    -1.16519   2.31437   0.2242 
 H                     4.81396  -3.27995  -0.44835 
 H                     7.24042  -2.76872  -0.37396 
 H                     8.01554  -0.44971  -0.00207 
 H                     6.40682   1.38809   0.30607 
 H                    -6.87574   1.88074  -0.49123 
 H                    -8.32188  -0.12916  -0.35743 
 H                    -7.33033  -2.35428   0.06736 
 H                    -4.90197  -2.62169   0.36374 
 H                     3.04859   2.7543    1.21217 
 H                     4.77271   2.49485   1.12204 
 H                     4.08254   4.2955   -0.45252 
 H                     4.72891   2.92447  -1.36454 
 H                     2.9782    3.18722  -1.27998 
 H                    -1.53167  -1.32932   1.3026 
 H                    -3.02767  -2.2247    1.35177 
 H                    -1.2761   -1.97256  -1.16835 
 H                    -1.35915  -3.37917  -0.09602 
 H                    -2.77567  -2.8996   -1.0408 
 
                          Input orientation:                          
 ---------------------------------------------------------------------
 Center     Atomic      Atomic             Coordinates (Angstroms)
 Number     Number       Type             X           Y           Z
 ---------------------------------------------------------------------
      1          6           0        1.185932    1.124188    0.259065
      2          6           0       -0.064042    0.518894    0.184736
      3          6           0       -1.255062    1.232433    0.206071
      4          6           0       -2.576908    0.775971    0.134368
      5          6           0        2.392634    0.431471    0.171283
      6         16           0       -3.827667    1.970009   -0.187075
      7          6           0       -5.077877    0.744792   -0.134775
      8          6           0       -4.509195   -0.508640    0.113846
      9          7           0       -3.118372   -0.458179    0.279721
     10         16           0        2.505198   -1.300121   -0.125106
     11          6           0        4.260315   -1.225762   -0.102553
     12          6           0        4.688784    0.087010    0.119416
     13          7           0        3.627512    0.981655    0.287411
     14          6           0        5.159317   -2.267461   -0.279503
     15          6           0        6.517913   -1.973596   -0.237257
     16          6           0        6.953940   -0.663841   -0.025333
     17          6           0        6.051566    0.378213    0.153458
     18          6           0       -6.446804    0.904176   -0.304215
     19          6           0       -7.251229   -0.226106   -0.226408
     20          6           0       -6.689747   -1.482485    0.014868
     21          6           0       -5.320051   -1.640504    0.186250
     22          6           0        3.847144    2.415669    0.554580
     23          6           0        3.911762    3.249637   -0.717632
     24          6           0       -2.369369   -1.660308    0.692423
     25          6           0       -1.918854   -2.522991   -0.479110
     26          1           0        1.228852    2.199196    0.376562
     27          1           0       -0.096636   -0.556945    0.072235
     28          1           0       -1.165193    2.314370    0.224199
     29          1           0        4.813961   -3.279951   -0.448352
     30          1           0        7.240415   -2.768718   -0.373960
     31          1           0        8.015538   -0.449707   -0.002068
     32          1           0        6.406822    1.388085    0.306065
     33          1           0       -6.875736    1.880738   -0.491225
     34          1           0       -8.321880   -0.129159   -0.357431
     35          1           0       -7.330326   -2.354283    0.067360
     36          1           0       -4.901973   -2.621689    0.363736
     37          1           0        3.048585    2.754296    1.212168
     38          1           0        4.772710    2.494849    1.122044
     39          1           0        4.082538    4.295496   -0.452515
     40          1           0        4.728911    2.924468   -1.364544
     41          1           0        2.978199    3.187215   -1.279982
     42          1           0       -1.531667   -1.329317    1.302601
     43          1           0       -3.027666   -2.224702    1.351768
     44          1           0       -1.276100   -1.972556   -1.168349
     45          1           0       -1.359149   -3.379171   -0.096017
     46          1           0       -2.775672   -2.899604   -1.040801
 ---------------------------------------------------------------------
                    Distance matrix (angstroms):
                    1          2          3          4          5
     1  C    0.000000
     2  C    1.390806   0.000000
     3  C    2.443967   1.388568   0.000000
     4  C    3.780975   2.526484   1.400277   0.000000
     5  C    1.394164   2.458268   3.734761   4.981605   0.000000
     6  S    5.103982   4.050784   2.704973   1.758821   6.417762
     7  C    6.287635   5.029081   3.868835   2.515603   7.483340
     8  C    5.926355   4.562920   3.691778   2.320427   6.965799
     9  N    4.585994   3.208212   2.517045   1.355521   5.583406
    10  S    2.786633   3.163196   4.545664   5.495934   1.760377
    11  C    3.886498   4.671876   6.046268   7.128161   2.511900
    12  C    3.655846   4.772855   6.053826   7.298299   2.322423
    13  N    2.445901   3.721863   4.889687   6.209715   1.356876
    14  C    5.251774   5.938246   7.323203   8.323638   3.891269
    15  C    6.186487   7.050725   8.419875   9.508627   4.792617
    16  C    6.045481   7.120047   8.428352   9.640313   4.695091
    17  C    4.923619   6.117306   7.356580   8.637658   3.659363
    18  C    7.656654   6.413047   5.227077   3.896779   8.864830
    19  C    8.558310   7.237384   6.186145   4.794121   9.674433
    20  C    8.299440   6.923463   6.078087   4.693650   9.283175
    21  C    7.069416   5.682309   4.977780   3.656074   7.986164
    22  C    2.972760   4.362558   5.249192   6.643315   2.489891
    23  C    3.591882   4.906959   5.623025   6.996268   3.322646
    24  C    4.536671   3.212662   3.137861   2.507978   5.227217
    25  C    4.846289   3.624098   3.874700   3.419436   5.266952
    26  H    1.082261   2.128799   2.670866   4.070385   2.126354
    27  H    2.122756   1.082196   2.135822   2.816429   2.680157
    28  H    2.635439   2.106615   1.085814   2.089900   4.025698
    29  H    5.749737   6.215057   7.590976   8.450740   4.474531
    30  H    7.225801   8.029672   9.408442  10.450026   5.834336
    31  H    7.013477   8.139576   9.424274  10.663996   5.694170
    32  H    5.227767   6.530107   7.664117   9.006196   4.128799
    33  H    8.131777   6.979306   5.700745   4.482388   9.404359
    34  H    9.609861   8.300952   7.218822   5.836594  10.742190
    35  H    9.201259   7.814589   7.056388   5.691921  10.114701
    36  H    7.148786   5.770691   5.308397   4.123425   7.910127
    37  H    2.652383   3.967504   4.674364   6.059834   2.628541
    38  H    3.935533   5.308212   6.226294   7.612288   3.290325
    39  H    4.353604   5.644726   6.189189   7.555111   4.263284
    40  H    4.292996   5.582065   6.413871   7.761299   3.745930
    41  H    3.136394   4.303553   4.893876   6.218818   3.169098
    42  H    3.807098   2.611404   2.800259   2.624792   4.447515
    43  H    5.492128   4.203849   4.050497   3.269447   6.150484
    44  H    4.205822   3.083382   3.487324   3.308107   4.586237
    45  H    5.184955   4.117163   4.622660   4.336037   5.354280
    46  H    5.794382   4.532219   4.576098   3.863985   6.267104
                    6          7          8          9         10
     6  S    0.000000
     7  C    1.751262   0.000000
     8  C    2.588191   1.398679   0.000000
     9  N    2.572371   2.336366   1.401588   0.000000
    10  S    7.127606   7.853966   7.062949   5.700640   0.000000
    11  C    8.696870   9.543896   8.801443   7.428347   1.756836
    12  C    8.727517   9.792086   9.217247   7.827810   2.598456
    13  N    7.535362   8.718838   8.273881   6.897835   2.576094
    14  C    9.936326  10.672149   9.835055   8.491547   2.829122
    15  C   11.071837  11.910604  11.129532   9.768405   4.070384
    16  C   11.099837  12.114489  11.465030  10.079029   4.495121
    17  C   10.012443  11.139208  10.598007   9.208868   3.933336
    18  C    2.830124   1.388551   2.434164   3.643549   9.221136
    19  C    4.067585   2.382121   2.777472   4.170196   9.815887
    20  C    4.489098   2.753413   2.390184   3.724791   9.197818
    21  C    3.924587   2.418955   1.394219   2.500804   7.838834
    22  C    7.723431   9.106209   8.864211   7.540090   4.008726
    23  C    7.862423   9.350272   9.258970   8.010331   4.798938
    24  C    4.009907   3.715478   2.497988   1.475277   4.955753
    25  C    4.890389   4.558113   3.334527   2.505617   4.603582
    26  H    5.092995   6.492425   6.350321   5.096016   3.758450
    27  H    4.513683   5.152682   4.413020   3.030461   2.713078
    28  H    2.715971   4.231020   4.377661   3.391905   5.163170
    29  H   10.114746  10.683883   9.742560   8.450704   3.058529
    30  H   12.041300  12.811802  11.974942  10.633455   4.963969
    31  H   12.089283  13.148458  12.525408  11.137479   5.576934
    32  H   10.262874  11.511146  11.081243   9.702510   4.757629
    33  H    3.064507   2.156323   3.416980   4.492513   9.912307
    34  H    4.963212   3.367035   3.860398   5.252686  10.892692
    35  H    5.570714   3.836489   3.371548   4.623945   9.893727
    36  H    4.747759   3.407734   2.163723   2.805186   7.540006
    37  H    7.060866   8.478900   8.305005   7.015755   4.303704
    38  H    8.715259  10.083470   9.807710   8.467530   4.593342
    39  H    8.249224   9.829632   9.859937   8.659486   5.822897
    40  H    8.689790  10.121087   9.965665   8.702055   4.932368
    41  H    6.999703   8.495722   8.465410   7.272534   4.657645
    42  H    4.286759   4.352423   3.309429   2.079134   4.281995
    43  H    4.539123   3.902700   2.583069   2.068361   5.800741
    44  H    4.797626   4.785997   3.773589   2.790020   3.979791
    45  H    5.891995   5.553153   4.266940   3.430487   4.388220
    46  H    5.054569   4.404844   3.170965   2.796744   5.593249
                   11         12         13         14         15
    11  C    0.000000
    12  C    1.398652   0.000000
    13  N    2.329206   1.398181   0.000000
    14  C    1.387319   2.433942   3.636561   0.000000
    15  C    2.382047   2.778313   4.166918   1.390656   0.000000
    16  C    2.752696   2.390745   3.724324   2.420097   1.396599
    17  C    2.418028   1.393963   2.501624   2.825448   2.429227
    18  C   10.918777  11.173564  10.091970  12.031705  13.280435
    19  C   11.555531  11.949123  10.957632  12.577424  13.879593
    20  C   10.953700  11.486741  10.610942  11.878685  13.219192
    21  C    9.593687  10.157044   9.324421  10.508433  11.850219
    22  C    3.723245   2.514036   1.475132   4.934491   5.198621
    23  C    4.530895   3.362532   2.496928   5.673334   5.857042
    24  C    6.691302   7.293763   6.565561   7.615405   8.941266
    25  C    6.325087   7.129602   6.605473   7.085594   8.458095
    26  H    4.598876   4.061845   2.691454   5.985817   6.764845
    27  H    4.411450   4.828783   4.035204   5.538468   6.771628
    28  H    6.486558   6.264276   4.974952   7.826003   8.810772
    29  H    2.155410   3.416790   4.484450   1.083013   2.157447
    30  H    3.366804   3.861272   5.249360   2.142697   1.083012
    31  H    3.835891   3.371960   4.624648   3.396940   2.149519
    32  H    3.406854   2.163166   2.808932   3.906683   3.407116
    33  H   11.567759  11.718723  10.570376  12.731649  13.939520
    34  H   12.632463  13.021194  12.018224  13.649948  14.954459
    35  H   11.646690  12.264649  11.456488  12.494760  13.856819
    36  H    9.279739   9.968920   9.259699  10.088052  11.454039
    37  H    4.363215   3.316440   2.081487   5.647859   6.040698
    38  H    3.950333   2.609597   2.073125   4.979297   4.986024
    39  H    5.535194   4.290221   3.425796   6.652954   6.728960
    40  H    4.363097   3.202330   2.777869   5.321531   5.335010
    41  H    4.743894   3.807320   2.782593   5.959171   6.344353
    42  H    5.960892   6.488445   5.743547   6.939195   8.220827
    43  H    7.498506   8.149006   7.463577   8.348028   9.680193
    44  H    5.687312   6.440496   5.906946   6.503200   7.849431
    45  H    6.017939   6.974118   6.635556   6.615132   8.002731
    46  H    7.292953   8.123058   7.604544   7.996451   9.374108
                   16         17         18         19         20
    16  C    0.000000
    17  C    1.390008   0.000000
    18  C   13.495051  12.517801   0.000000
    19  C   14.213334  13.321931   1.389493   0.000000
    20  C   13.668284  12.877207   2.420121   1.397127   0.000000
    21  C   12.314605  11.549457   2.825867   2.429044   1.389392
    22  C    4.412693   3.028465  10.439708  11.435156  11.247798
    23  C    5.004941   3.685463  10.628828  11.701900  11.632778
    24  C    9.403840   8.680910   4.918876   5.170468   4.376799
    25  C    9.076829   8.505570   5.681408   5.811520   4.907962
    26  H    6.413668   5.159876   7.813849   8.840669   8.740126
    27  H    7.052061   6.219446   6.526961   7.168462   6.658005
    28  H    8.651724   7.472303   5.492111   6.610363   6.706760
    29  H    3.406242   3.908453  12.013847  12.447652  11.652500
    30  H    2.152700   3.405100  14.171626  14.713748  13.994820
    31  H    1.083229   2.137013  14.528717  15.270052  14.741517
    32  H    2.149317   1.081359  12.877201  13.763412  13.410633
    33  H   14.069537  13.030285   1.082880   2.156366   3.406170
    34  H   15.288782  14.391469   2.141617   1.082986   2.152663
    35  H   14.384243  13.658293   3.396503   2.149812   1.083111
    36  H   12.022779  11.358858   3.906966   3.406771   2.148402
    37  H    5.335435   3.972975   9.792077  10.818432  10.687327
    38  H    4.006440   2.655895  11.421119  12.401493  12.183306
    39  H    5.746517   4.425989  11.063005  12.204519  12.232973
    40  H    4.429470   3.246099  11.406248  12.439663  12.317052
    41  H    5.675499   4.403502   9.746541  10.835219  10.814431
    42  H    8.614627   7.857583   5.632843   6.022320   5.318600
    43  H   10.196330   9.520692   4.921652   4.931887   3.968504
    44  H    8.411467   7.808199   5.979841   6.295991   5.563070
    45  H    8.745597   8.312573   6.653919   6.683968   5.659062
    46  H   10.034698   9.491600   5.337463   5.276499   4.294490
                   21         22         23         24         25
    21  C    0.000000
    22  C   10.031235   0.000000
    23  C   10.486031   1.522564   0.000000
    24  C    2.993848   7.434892   8.096198   0.000000
    25  C    3.576259   7.661959   8.208301   1.523048   0.000000
    26  H    7.593922   2.633250   3.081995   5.286089   5.739275
    27  H    5.335838   4.962106   5.584014   2.601415   2.736749
    28  H    5.736315   5.024235   5.247594   4.179395   4.945979
    29  H   10.285364   5.863505   6.597120   7.451499   6.775303
    30  H   12.623471   6.265329   6.886119   9.732096   9.163168
    31  H   13.389974   5.088786   5.571190  10.478271  10.159637
    32  H   12.112236   2.769411   3.276989   9.298575   9.232004
    33  H    3.908743  10.787030  10.876362   5.852126   6.630509
    34  H    3.404516  12.465675  12.696771   6.235303   6.836957
    35  H    2.136544  12.162469  12.585892   5.048108   5.441610
    36  H    1.081210  10.097447  10.645363   2.728804   3.101472
    37  H    9.507936   1.088479   2.171305   7.008073   7.442152
    38  H   10.947177   1.088557   2.166874   8.274007   8.515835
    39  H   11.137899   2.145554   1.092370   8.854919   9.083456
    40  H   11.145652   2.172424   1.091770   8.696946   8.640115
    41  H    9.711728   2.171628   1.091638   7.482335   7.564984
    42  H    3.961683   6.596671   7.394530   1.087942   2.179281
    43  H    2.637186   8.332560   9.077801   1.089326   2.161147
    44  H    4.277702   6.962229   7.374846   2.180644   1.091404
    45  H    4.334903   7.817220   8.491761   2.143985   1.092279
    46  H    3.092709   8.640547   9.090620   2.169102   1.091545
                   26         27         28         29         30
    26  H    0.000000
    27  H    3.073410   0.000000
    28  H    2.401652   3.067468   0.000000
    29  H    6.599586   5.639125   8.215780   0.000000
    30  H    7.834688   7.676154   9.841231   2.480841   0.000000
    31  H    7.295146   8.113223   9.590471   4.296457   2.473243
    32  H    5.241588   6.792112   7.628900   4.989680   4.293754
    33  H    8.157133   7.226063   5.771496  12.778246  14.862601
    34  H    9.857812   8.247560   7.584675  13.508741  15.784567
    35  H    9.699964   7.453638   7.734972  12.190428  14.583313
    36  H    7.799238   5.238263   6.192550   9.772009  12.165665
    37  H    2.077932   4.707035   4.350350   6.502770   7.112730
    38  H    3.633467   5.841753   6.008110   5.984660   6.002727
    39  H    3.636670   6.425499   5.649910   7.610676   7.738312
    40  H    3.975913   6.121313   6.134883   6.272277   6.300895
    41  H    2.603946   5.030093   4.493564   6.773911   7.379736
    42  H    4.574759   2.041978   3.817553   6.865698   9.046113
    43  H    6.216096   3.606876   5.034222   8.114499  10.426293
    44  H    5.105394   2.221292   4.508794   6.270289   8.590457
    45  H    6.167597   3.096322   5.705836   6.183953   8.625683
    46  H    6.636482   3.728825   5.601731   7.622217  10.039114
                   31         32         33         34         35
    31  H    0.000000
    32  H    2.461786   0.000000
    33  H   15.080461  13.315582   0.000000
    34  H   16.344426  14.821502   2.479701   0.000000
    35  H   15.463757  14.239787   4.295820   2.472813   0.000000
    36  H   13.103946  11.998769   4.989844   4.292849   2.460944
    37  H    6.034122   3.737019  10.107265  11.834924  11.624541
    38  H    4.522164   2.135666  11.775656  13.436612  13.080899
    39  H    6.179672   3.798786  11.221244  13.170277  13.219050
    40  H    4.903398   2.822551  11.684173  13.441059  13.241630
    41  H    6.343110   4.184241   9.971412  11.812757  11.780884
    42  H    9.676001   8.449672   6.487013   7.092466   6.016712
    43  H   11.266580  10.156539   5.921056   5.944860   4.492146
    44  H    9.487561   8.514405   6.830981   7.327941   6.190827
    45  H    9.822186   9.121332   7.632533   7.688338   6.060697
    46  H   11.114458  10.223332   6.321727   6.237210   4.719139
                   36         37         38         39         40
    36  H    0.000000
    37  H    9.634958   0.000000
    38  H   10.970574   1.745864   0.000000
    39  H   11.368164   2.493096   2.489559   0.000000
    40  H   11.247255   3.080893   2.523809   1.768986   0.000000
    41  H    9.926847   2.530451   3.077234   1.769902   1.772337
    42  H    3.729699   6.137001   7.375772   8.138689   8.025160
    43  H    2.155651   7.856891   9.119912   9.814450   9.698288
    44  H    3.989438   6.834683   7.860770   8.277433   7.751096
    45  H    3.651952   7.665434   8.578314   9.414859   8.854914
    46  H    2.563419   8.424038   9.526599   9.957439   9.504914
                   41         42         43         44         45
    41  H    0.000000
    42  H    6.885324   0.000000
    43  H    8.502080   1.744175   0.000000
    44  H    6.688405   2.566060   3.079375   0.000000
    45  H    7.958127   2.487528   2.492555   1.770694   0.000000
    46  H    8.379356   3.082999   2.498676   1.767598   1.768937
                   46
    46  H    0.000000
 Stoichiometry    C21H21N2S2(1+)
 Framework group  C1[X(C21H21N2S2)]
 Deg. of freedom   132
 Full point group                 C1      NOp   1
 Largest Abelian subgroup         C1      NOp   1
 Largest concise Abelian subgroup C1      NOp   1
                         Standard orientation:                         
 ---------------------------------------------------------------------
 Center     Atomic      Atomic             Coordinates (Angstroms)
 Number     Number       Type             X           Y           Z
 ---------------------------------------------------------------------
      1          6           0        1.185932    1.124188    0.259065
      2          6           0       -0.064042    0.518894    0.184736
      3          6           0       -1.255062    1.232433    0.206071
      4          6           0       -2.576908    0.775971    0.134368
      5          6           0        2.392634    0.431471    0.171283
      6         16           0       -3.827667    1.970009   -0.187075
      7          6           0       -5.077877    0.744792   -0.134775
      8          6           0       -4.509195   -0.508640    0.113846
      9          7           0       -3.118372   -0.458179    0.279721
     10         16           0        2.505198   -1.300121   -0.125106
     11          6           0        4.260315   -1.225762   -0.102553
     12          6           0        4.688784    0.087010    0.119416
     13          7           0        3.627512    0.981655    0.287411
     14          6           0        5.159317   -2.267461   -0.279503
     15          6           0        6.517913   -1.973596   -0.237257
     16          6           0        6.953940   -0.663841   -0.025333
     17          6           0        6.051566    0.378213    0.153458
     18          6           0       -6.446804    0.904176   -0.304215
     19          6           0       -7.251229   -0.226106   -0.226408
     20          6           0       -6.689747   -1.482485    0.014868
     21          6           0       -5.320051   -1.640504    0.186250
     22          6           0        3.847144    2.415669    0.554580
     23          6           0        3.911762    3.249637   -0.717632
     24          6           0       -2.369369   -1.660308    0.692423
     25          6           0       -1.918854   -2.522991   -0.479110
     26          1           0        1.228852    2.199196    0.376562
     27          1           0       -0.096636   -0.556945    0.072235
     28          1           0       -1.165193    2.314370    0.224199
     29          1           0        4.813961   -3.279951   -0.448352
     30          1           0        7.240415   -2.768718   -0.373960
     31          1           0        8.015538   -0.449707   -0.002068
     32          1           0        6.406822    1.388085    0.306065
     33          1           0       -6.875736    1.880738   -0.491225
     34          1           0       -8.321880   -0.129159   -0.357431
     35          1           0       -7.330326   -2.354283    0.067360
     36          1           0       -4.901973   -2.621689    0.363736
     37          1           0        3.048585    2.754296    1.212168
     38          1           0        4.772710    2.494849    1.122044
     39          1           0        4.082538    4.295496   -0.452515
     40          1           0        4.728911    2.924468   -1.364544
     41          1           0        2.978199    3.187215   -1.279982
     42          1           0       -1.531667   -1.329317    1.302601
     43          1           0       -3.027666   -2.224702    1.351768
     44          1           0       -1.276100   -1.972556   -1.168349
     45          1           0       -1.359149   -3.379171   -0.096017
     46          1           0       -2.775672   -2.899604   -1.040801
 ---------------------------------------------------------------------
 Rotational constants (GHZ):           0.5429629           0.0715335           0.0638922
 Standard basis: def2TZVP (5D, 7F)
 There are  1038 symmetry adapted cartesian basis functions of A   symmetry.
 There are   913 symmetry adapted basis functions of A   symmetry.
   913 basis functions,  1479 primitive gaussians,  1038 cartesian basis functions
    96 alpha electrons       96 beta electrons
       nuclear repulsion energy      2285.6548009337 Hartrees.
 NAtoms=   46 NActive=   46 NUniq=   46 SFac= 1.00D+00 NAtFMM=   60 NAOKFM=F Big=F
 Integral buffers will be    131072 words long.
 Raffenetti 1 integral format.
 Two-electron integral symmetry is turned on.
 ------------------------------------------------------------------------------
 Polarizable Continuum Model (PCM)
 =================================
 Model                : PCM.
 Atomic radii         : SMD-Coulomb.
 Polarization charges : Total charges.
 Charge compensation  : None.
 Solution method      : On-the-fly selection.
 Cavity type          : VdW (van der Waals Surface) (Alpha=1.000).
 Cavity algorithm     : GePol (No added spheres)
                        Default sphere list used, NSphG=   46.
                        Lebedev-Laikov grids with approx.  5.0 points / Ang**2.
                        Smoothing algorithm: York/Karplus (Gamma=1.0000).
                        Polarization charges: spherical gaussians, with
                                              point-specific exponents (IZeta= 3).
                        Self-potential: point-specific (ISelfS= 7).
                        Self-field    : sphere-specific E.n sum rule (ISelfD= 2).
 Solvent              : Ethanol, Eps=  24.852000 Eps(inf)=   1.852593
 ------------------------------------------------------------------------------
 ------------------------------------------------------------------------------
 Atomic radii for non-electrostatic terms: SMD-CDS.
 ------------------------------------------------------------------------------
 Nuclear repulsion after PCM non-electrostatic terms =     2285.6487450168 Hartrees.
 One-electron integrals computed using PRISM.
   1 Symmetry operations used in ECPInt.
 ECPInt:  NShTT=   66066 NPrTT=  205761 LenC2=   50229 LenP2D=  107572.
 LDataN:  DoStor=T MaxTD1= 6 Len=  172
 NBasis=   913 RedAO= T EigKep=  6.82D-06  NBF=   913
 NBsUse=   913 1.00D-06 EigRej= -1.00D+00 NBFU=   913
 ExpMin= 9.52D-02 ExpMax= 6.07D+04 ExpMxC= 2.07D+03 IAcc=3 IRadAn=         5 AccDes= 0.00D+00
 Harris functional with IExCor=20419 and IRadAn=       5 diagonalized for initial guess.
 HarFok:  IExCor=20419 AccDes= 0.00D+00 IRadAn=         5 IDoV= 1 UseB2=F ITyADJ=14
 ICtDFT=  3500011 ScaDFX=  1.000000  1.000000  1.000000  1.000000
 FoFCou: FMM=F IPFlag=           0 FMFlag=      100000 FMFlg1=           0
         NFxFlg=           0 DoJE=T BraDBF=F KetDBF=T FulRan=T
         wScrn=  0.000000 ICntrl=       500 IOpCl=  0 I1Cent=   200000004 NGrid=           0
         NMat0=    1 NMatS0=      1 NMatT0=    0 NMatD0=    1 NMtDS0=    0 NMtDT0=    0
 Petite list used in FoFCou.
 Requested convergence on RMS density matrix=1.00D-08 within 128 cycles.
 Requested convergence on MAX density matrix=1.00D-06.
 Requested convergence on             energy=1.00D-06.
 No special actions if energy rises.
 Inv3:  Mode=1 IEnd=    37446267.
 Iteration    1 A*A^-1 deviation from unit magnitude is 3.33D-15 for   2473.
 Iteration    1 A*A^-1 deviation from orthogonality  is 2.42D-15 for   1360    236.
 Iteration    1 A^-1*A deviation from unit magnitude is 3.55D-15 for   3012.
 Iteration    1 A^-1*A deviation from orthogonality  is 1.93D-15 for   2937   2119.
 Error on total polarization charges =  0.06454
 SCF Done:  E(RCAM-B3LYP) =  -1718.50393432     A.U. after   14 cycles
            NFock= 14  Conv=0.52D-08     -V/T= 2.0035
 SMD-CDS (non-electrostatic) energy       (kcal/mol) =      -3.80
 (included in total energy above)
 DoSCS=F DFT=T ScalE2(SS,OS)=  1.000000  1.000000
 ExpMin= 9.52D-02 ExpMax= 6.07D+04 ExpMxC= 2.07D+03 IAcc=3 IRadAn=         5 AccDes= 0.00D+00
 HarFok:  IExCor=  205 AccDes= 0.00D+00 IRadAn=         5 IDoV=-2 UseB2=F ITyADJ=14
 ICtDFT= 12500011 ScaDFX=  1.000000  1.000000  1.000000  1.000000
 GSVD:  LWork=       -1353 too small for GESVD, short by        5940 words or        5940 for optimal perf.
 Range of M.O.s used for correlation:    34   913
 NBasis=   913 NAE=    96 NBE=    96 NFC=    33 NFV=     0
 NROrb=    880 NOA=    63 NOB=    63 NVA=   817 NVB=   817

 **** Warning!!: The largest alpha MO coefficient is  0.50009278D+02

 NEqPCM:  Using non-equilibrium solvation (IEInf=1, Eps=  24.8520, EpsInf=   1.8526)
 Inv3:  Mode=1 IEnd=    37446267.
 Iteration    1 A*A^-1 deviation from unit magnitude is 4.00D-15 for    895.
 Iteration    1 A*A^-1 deviation from orthogonality  is 2.17D-15 for   1360    236.
 Iteration    1 A^-1*A deviation from unit magnitude is 4.00D-15 for    895.
 Iteration    1 A^-1*A deviation from orthogonality  is 1.95D-15 for   1410    238.
 Orbital symmetries:
       Occupied  (A) (A) (A) (A) (A) (A) (A) (A) (A) (A) (A) (A)
                 (A) (A) (A) (A) (A) (A) (A) (A) (A) (A) (A) (A)
                 (A) (A) (A) (A) (A) (A) (A) (A) (A) (A) (A) (A)
                 (A) (A) (A) (A) (A) (A) (A) (A) (A) (A) (A) (A)
                 (A) (A) (A) (A) (A) (A) (A) (A) (A) (A) (A) (A)
                 (A) (A) (A) (A) (A) (A) (A) (A) (A) (A) (A) (A)
                 (A) (A) (A) (A) (A) (A) (A) (A) (A) (A) (A) (A)
                 (A) (A) (A) (A) (A) (A) (A) (A) (A) (A) (A) (A)
       Virtual   (A) (A) (A) (A) (A) (A) (A) (A) (A) (A) (A) (A)
                 (A) (A) (A) (A) (A) (A) (A) (A) (A) (A) (A) (A)
                 (A) (A) (A) (A) (A) (A) (A) (A) (A) (A) (A) (A)
                 (A) (A) (A) (A) (A) (A) (A) (A) (A) (A) (A) (A)
                 (A) (A) (A) (A) (A) (A) (A) (A) (A) (A) (A) (A)
                 (A) (A) (A) (A) (A) (A) (A) (A) (A) (A) (A) (A)
                 (A) (A) (A) (A) (A) (A) (A) (A) (A) (A) (A) (A)
                 (A) (A) (A) (A) (A) (A) (A) (A) (A) (A) (A) (A)
                 (A) (A) (A) (A) (A) (A) (A) (A) (A) (A) (A) (A)
                 (A) (A) (A) (A) (A) (A) (A) (A) (A) (A) (A) (A)
                 (A) (A) (A) (A) (A) (A) (A) (A) (A) (A) (A) (A)
                 (A) (A) (A) (A) (A) (A) (A) (A) (A) (A) (A) (A)
                 (A) (A) (A) (A) (A) (A) (A) (A) (A) (A) (A) (A)
                 (A) (A) (A) (A) (A) (A) (A) (A) (A) (A) (A) (A)
                 (A) (A) (A) (A) (A) (A) (A) (A) (A) (A) (A) (A)
                 (A) (A) (A) (A) (A) (A) (A) (A) (A) (A) (A) (A)
                 (A) (A) (A) (A) (A) (A) (A) (A) (A) (A) (A) (A)
                 (A) (A) (A) (A) (A) (A) (A) (A) (A) (A) (A) (A)
                 (A) (A) (A) (A) (A) (A) (A) (A) (A) (A) (A) (A)
                 (A) (A) (A) (A) (A) (A) (A) (A) (A) (A) (A) (A)
                 (A) (A) (A) (A) (A) (A) (A) (A) (A) (A) (A) (A)
                 (A) (A) (A) (A) (A) (A) (A) (A) (A) (A) (A) (A)
                 (A) (A) (A) (A) (A) (A) (A) (A) (A) (A) (A) (A)
                 (A) (A) (A) (A) (A) (A) (A) (A) (A) (A) (A) (A)
                 (A) (A) (A) (A) (A) (A) (A) (A) (A) (A) (A) (A)
                 (A) (A) (A) (A) (A) (A) (A) (A) (A) (A) (A) (A)
                 (A) (A) (A) (A) (A) (A) (A) (A) (A) (A) (A) (A)
                 (A) (A) (A) (A) (A) (A) (A) (A) (A) (A) (A) (A)
                 (A) (A) (A) (A) (A) (A) (A) (A) (A) (A) (A) (A)
                 (A) (A) (A) (A) (A) (A) (A) (A) (A) (A) (A) (A)
                 (A) (A) (A) (A) (A) (A) (A) (A) (A) (A) (A) (A)
                 (A) (A) (A) (A) (A) (A) (A) (A) (A) (A) (A) (A)
                 (A) (A) (A) (A) (A) (A) (A) (A) (A) (A) (A) (A)
                 (A) (A) (A) (A) (A) (A) (A) (A) (A) (A) (A) (A)
                 (A) (A) (A) (A) (A) (A) (A) (A) (A) (A) (A) (A)
                 (A) (A) (A) (A) (A) (A) (A) (A) (A) (A) (A) (A)
                 (A) (A) (A) (A) (A) (A) (A) (A) (A) (A) (A) (A)
                 (A) (A) (A) (A) (A) (A) (A) (A) (A) (A) (A) (A)
                 (A) (A) (A) (A) (A) (A) (A) (A) (A) (A) (A) (A)
                 (A) (A) (A) (A) (A) (A) (A) (A) (A) (A) (A) (A)
                 (A) (A) (A) (A) (A) (A) (A) (A) (A) (A) (A) (A)
                 (A) (A) (A) (A) (A) (A) (A) (A) (A) (A) (A) (A)
                 (A) (A) (A) (A) (A) (A) (A) (A) (A) (A) (A) (A)
                 (A) (A) (A) (A) (A) (A) (A) (A) (A) (A) (A) (A)
                 (A) (A) (A) (A) (A) (A) (A) (A) (A) (A) (A) (A)
                 (A) (A) (A) (A) (A) (A) (A) (A) (A) (A) (A) (A)
                 (A) (A) (A) (A) (A) (A) (A) (A) (A) (A) (A) (A)
                 (A) (A) (A) (A) (A) (A) (A) (A) (A) (A) (A) (A)
                 (A) (A) (A) (A) (A) (A) (A) (A) (A) (A) (A) (A)
                 (A) (A) (A) (A) (A) (A) (A) (A) (A) (A) (A) (A)
                 (A) (A) (A) (A) (A) (A) (A) (A) (A) (A) (A) (A)
                 (A) (A) (A) (A) (A) (A) (A) (A) (A) (A) (A) (A)
                 (A) (A) (A) (A) (A) (A) (A) (A) (A) (A) (A) (A)
                 (A) (A) (A) (A) (A) (A) (A) (A) (A) (A) (A) (A)
                 (A) (A) (A) (A) (A) (A) (A) (A) (A) (A) (A) (A)
                 (A) (A) (A) (A) (A) (A) (A) (A) (A) (A) (A) (A)
                 (A) (A) (A) (A) (A) (A) (A) (A) (A) (A) (A) (A)
                 (A) (A) (A) (A) (A) (A) (A) (A) (A) (A) (A) (A)
                 (A) (A) (A) (A) (A) (A) (A) (A) (A) (A) (A) (A)
                 (A) (A) (A) (A) (A) (A) (A) (A) (A) (A) (A) (A)
                 (A) (A) (A) (A) (A) (A) (A) (A) (A) (A) (A) (A)
                 (A) (A) (A) (A) (A) (A) (A) (A) (A) (A) (A) (A)
                 (A) (A) (A) (A) (A) (A) (A) (A) (A) (A) (A) (A)
                 (A) (A) (A) (A) (A) (A) (A) (A) (A) (A) (A) (A)
                 (A) (A) (A) (A) (A) (A) (A) (A) (A) (A) (A) (A)
                 (A) (A) (A) (A) (A) (A) (A) (A) (A) (A) (A) (A)
                 (A) (A) (A) (A) (A) (A) (A) (A) (A) (A) (A) (A)
                 (A) (A) (A) (A) (A) (A) (A) (A) (A) (A) (A) (A)
                 (A)
   600 initial guesses have been made.
 Convergence on wavefunction:    0.001000000000000
 Iteration     1 Dimension   600 NMult     0 NNew    600
 CISAX will form   224 AO SS matrices at one time.
 New state      3 was old state      8
 New state      5 was old state     10
 New state      6 was old state      5
 New state      7 was old state      3
 New state      8 was old state      6
 New state      9 was old state      7
 New state     10 was old state      9
 New state     13 was old state     32
 New state     14 was old state     38
 New state     15 was old state     44
 New state     16 was old state     13
 New state     17 was old state     15
 New state     18 was old state     17
 New state     19 was old state     14
 New state     20 was old state     19
 New state     21 was old state     27
 New state     22 was old state     18
 New state     23 was old state     41
 New state     24 was old state     28
 New state     25 was old state     56
 New state     26 was old state     64
 New state     27 was old state     36
 New state     28 was old state     34
 New state     29 was old state     26
 New state     30 was old state     43
 New state     31 was old state     25
 New state     32 was old state     23
 New state     33 was old state     29
 New state     34 was old state     24
 New state     35 was old state     46
 New state     36 was old state     42
 New state     37 was old state     30
 New state     38 was old state     55
 New state     39 was old state     53
 New state     41 was old state     51
 New state     42 was old state     57
 New state     43 was old state     47
 New state     44 was old state     50
 New state     45 was old state    108
 New state     46 was old state    116
 New state     47 was old state     54
 New state     48 was old state     65
 New state     49 was old state     48
 New state     50 was old state     60
 New state     51 was old state     20
 New state     52 was old state     21
 New state     53 was old state     61
 New state     54 was old state     63
 New state     55 was old state     67
 New state     56 was old state     45
 New state     57 was old state     69
 New state     58 was old state    135
 New state     59 was old state     16
 New state     60 was old state    140
 New state     61 was old state     62
 New state     62 was old state     72
 New state     63 was old state     39
 New state     64 was old state     68
 New state     65 was old state     31
 New state     66 was old state     59
 New state     67 was old state     52
 New state     68 was old state     70
 New state     69 was old state     82
 New state     70 was old state     73
 New state     71 was old state    124
 New state     72 was old state     33
 New state     73 was old state     37
 New state     74 was old state     49
 New state     75 was old state    107
 New state     76 was old state     35
 New state     77 was old state    158
 New state     78 was old state    153
 New state     79 was old state     74
 New state     80 was old state    176
 New state     81 was old state    119
 New state     82 was old state    114
 New state     83 was old state    197
 New state     84 was old state     71
 New state     85 was old state     89
 New state     86 was old state     66
 New state     87 was old state     58
 New state     88 was old state    109
 New state     89 was old state    195
 New state     90 was old state    186
 New state     91 was old state    123
 New state     92 was old state    100
 New state     93 was old state     90
 New state     94 was old state     85
 New state     95 was old state     79
 New state     96 was old state     84
 New state     97 was old state     83
 New state     98 was old state    133
 New state     99 was old state     98
 New state    100 was old state     93
 New state    101 was old state     91
 New state    102 was old state    110
 New state    103 was old state     99
 New state    104 was old state    101
 New state    105 was old state     86
 New state    106 was old state    112
 New state    107 was old state     75
 New state    108 was old state     88
 New state    109 was old state     96
 New state    110 was old state    105
 New state    111 was old state    113
 New state    112 was old state    102
 New state    113 was old state     97
 New state    114 was old state    103
 New state    115 was old state     95
 New state    116 was old state    213
 New state    117 was old state    136
 New state    118 was old state    150
 New state    119 was old state    152
 New state    121 was old state    128
 New state    122 was old state    129
 New state    123 was old state    118
 New state    124 was old state    252
 New state    125 was old state    127
 New state    126 was old state    160
 New state    127 was old state    138
 New state    128 was old state    181
 New state    129 was old state    154
 New state    130 was old state    156
 New state    131 was old state    215
 New state    132 was old state    131
 New state    133 was old state    171
 New state    134 was old state    147
 New state    135 was old state    122
 New state    136 was old state    139
 New state    137 was old state    146
 New state    138 was old state    143
 New state    139 was old state    126
 New state    140 was old state    151
 New state    141 was old state    117
 New state    142 was old state    194
 New state    143 was old state    170
 New state    144 was old state    145
 New state    145 was old state    179
 New state    146 was old state    191
 New state    147 was old state    178
 New state    148 was old state     77
 New state    149 was old state     81
 New state    150 was old state     78
 Iteration     2 Dimension   900 NMult   600 NNew    300
 New state      3 was old state      4
 New state      4 was old state      3
 New state      5 was old state      6
 New state      6 was old state      5
 New state     13 was old state     15
 New state     14 was old state     13
 New state     15 was old state     16
 New state     16 was old state     14
 New state     17 was old state     22
 New state     19 was old state     17
 New state     21 was old state     19
 New state     22 was old state     25
 New state     23 was old state     21
 New state     24 was old state     23
 New state     25 was old state     29
 New state     26 was old state     24
 New state     27 was old state     26
 New state     28 was old state     31
 New state     29 was old state     34
 New state     30 was old state     27
 New state     31 was old state     28
 New state     33 was old state     37
 New state     34 was old state     30
 New state     35 was old state     33
 New state     36 was old state     35
 New state     37 was old state     36
 New state     38 was old state     39
 New state     39 was old state     38
 New state     40 was old state     41
 New state     41 was old state     44
 New state     42 was old state     40
 New state     44 was old state     42
 New state     45 was old state     46
 New state     46 was old state     45
 New state     47 was old state     49
 New state     48 was old state     47
 New state     49 was old state     48
 New state     51 was old state     61
 New state     52 was old state     51
 New state     54 was old state     52
 New state     55 was old state     54
 New state     57 was old state     55
 New state     58 was old state     66
 New state     59 was old state     57
 New state     60 was old state     58
 New state     61 was old state     59
 New state     62 was old state     60
 New state     63 was old state     69
 New state     64 was old state     62
 New state     65 was old state     63
 New state     66 was old state     68
 New state     67 was old state     64
 New state     68 was old state     67
 New state     69 was old state     65
 New state     71 was old state     72
 New state     72 was old state     73
 New state     73 was old state     76
 New state     74 was old state     71
 New state     75 was old state     74
 New state     76 was old state     85
 New state     77 was old state     87
 New state     78 was old state     75
 New state     79 was old state     78
 New state     81 was old state     77
 New state     82 was old state     81
 New state     83 was old state     79
 New state     84 was old state     82
 New state     85 was old state     83
 New state     86 was old state     89
 New state     87 was old state     95
 New state     88 was old state     84
 New state     89 was old state     86
 New state     91 was old state     88
 New state     92 was old state     91
 New state     95 was old state     92
 New state     99 was old state    101
 New state    100 was old state     99
 New state    101 was old state    100
 New state    104 was old state    105
 New state    105 was old state    104
 New state    109 was old state    115
 New state    110 was old state    109
 New state    111 was old state    110
 New state    112 was old state    121
 New state    113 was old state    118
 New state    114 was old state    111
 New state    115 was old state    113
 New state    116 was old state    114
 New state    117 was old state    112
 New state    118 was old state    116
 New state    120 was old state    117
 New state    121 was old state    120
 New state    125 was old state    126
 New state    126 was old state    125
 New state    127 was old state    129
 New state    128 was old state    139
 New state    129 was old state    131
 New state    130 was old state    128
 New state    131 was old state    136
 New state    132 was old state    127
 New state    133 was old state    130
 New state    134 was old state    132
 New state    135 was old state    134
 New state    136 was old state    133
 New state    138 was old state    135
 New state    139 was old state    138
 New state    140 was old state    142
 New state    141 was old state    140
 New state    142 was old state    145
 New state    143 was old state    148
 New state    144 was old state    141
 New state    145 was old state    147
 New state    146 was old state    143
 New state    147 was old state    144
 New state    148 was old state    146
 New state    149 was old state    154
 New state    150 was old state    155
 Iteration     3 Dimension  1200 NMult   900 NNew    300
 New state    111 was old state    112
 New state    112 was old state    111
 Iteration     4 Dimension  1496 NMult  1200 NNew    296
 Iteration     5 Dimension  1608 NMult  1496 NNew    112
 Iteration     6 Dimension  1620 NMult  1608 NNew     12
 Iteration     7 Dimension  1622 NMult  1620 NNew      2
 Convergence on energies, max DE= 7.39D-06.
 ***********************************************************************
 Excited states from <AA,BB:AA,BB> singles matrix:
 ***********************************************************************
 
 Ground to excited state transition densities written to RWF  633
 Ground to excited state transition electric dipole moments (Au):
       state          X           Y           Z        Dip. S.      Osc.
         1         5.0969     -0.1927     -0.0020     26.0157      1.6983
         2         0.4889      0.5158      0.1315      0.5224      0.0578
         3        -0.0233      0.2544     -0.0679      0.0699      0.0079
         4         0.0330     -0.3225     -0.0684      0.1098      0.0126
         5         0.1389      0.4211      0.0058      0.1967      0.0226
         6        -0.0315     -0.0236      0.0047      0.0016      0.0002
         7        -0.9863     -0.1665     -0.0359      1.0019      0.1202
         8        -0.2485     -0.8500      0.0672      0.7889      0.0959
         9         0.3112      0.1314      0.1546      0.1380      0.0171
        10         0.7378      0.7692      0.0075      1.1361      0.1470
        11        -0.5119      0.1428     -0.0070      0.2825      0.0386
        12         0.3410     -0.6834     -0.0640      0.5874      0.0816
        13        -1.1979     -0.1846     -0.1578      1.4939      0.2198
        14         1.1680     -0.8242     -0.0895      2.0515      0.3026
        15        -0.6898      0.4538      0.0845      0.6888      0.1019
        16        -0.2945      0.1359      0.0064      0.1053      0.0157
        17        -0.1770     -0.3718     -0.0956      0.1787      0.0270
        18        -0.1215      0.3692     -0.0780      0.1572      0.0238
        19         0.2038      0.1857     -0.0045      0.0760      0.0117
        20         0.0202      0.0746      0.0176      0.0063      0.0010
        21        -0.0894     -0.4053      0.0320      0.1733      0.0275
        22         0.2825     -0.1054      0.0537      0.0938      0.0149
        23        -0.0038      0.0599      0.2000      0.0436      0.0071
        24         0.2151      0.1939     -0.0238      0.0844      0.0138
        25        -0.0451      0.2156      0.0426      0.0503      0.0083
        26         0.2625      0.0418     -0.0252      0.0713      0.0118
        27         0.8337      0.7234      0.0433      1.2202      0.2021
        28        -1.3576     -0.9884      0.0749      2.8258      0.4701
        29         1.3507     -0.2066      0.0242      1.8676      0.3111
        30        -0.2695      0.1460     -0.1324      0.1115      0.0188
        31         0.5729     -0.8265      0.1069      1.0228      0.1734
        32         0.2895     -0.3357     -0.1214      0.2113      0.0360
        33        -0.2724     -0.3868     -0.1817      0.2568      0.0449
        34         0.1591     -0.0329      0.0317      0.0274      0.0048
        35        -0.1237      0.0058     -0.0649      0.0195      0.0035
        36        -0.0468      0.0221      0.0565      0.0059      0.0011
        37         0.1254     -0.2840      0.0045      0.0964      0.0175
        38         0.0572     -0.1510     -0.0132      0.0263      0.0048
        39         0.0389      0.0299      0.0448      0.0044      0.0008
        40         0.2942      0.1229      0.0804      0.1081      0.0199
        41        -0.2862      0.3495     -0.0512      0.2066      0.0383
        42         0.3009     -0.3889     -0.0732      0.2472      0.0459
        43         0.1104     -0.1704      0.0143      0.0414      0.0077
        44        -0.1005     -0.0839     -0.0022      0.0171      0.0032
        45        -0.1192      0.1050     -0.0678      0.0298      0.0056
        46        -0.0623     -0.0764      0.0514      0.0124      0.0023
        47        -0.0573     -0.0270      0.0695      0.0088      0.0017
        48        -0.0830     -0.0886     -0.0460      0.0169      0.0032
        49         0.0967      0.0956     -0.1159      0.0319      0.0061
        50        -0.1229      0.1550     -0.0830      0.0460      0.0088
        51        -0.0072      0.7398      0.1895      0.5832      0.1125
        52         0.7875     -0.5747      0.0679      0.9551      0.1845
        53        -0.0752     -0.0626      0.0154      0.0098      0.0019
        54        -0.1808      0.1574     -0.1227      0.0725      0.0141
        55         0.2952     -0.3415      0.1613      0.2298      0.0447
        56        -0.4063      0.3941      0.0745      0.3260      0.0637
        57         0.1854     -0.2381     -0.0166      0.0914      0.0179
        58        -0.0024      0.0291      0.2156      0.0473      0.0093
        59         0.0668     -0.1046      0.0609      0.0191      0.0038
        60        -0.0091      0.0507     -0.0726      0.0079      0.0016
        61        -0.0944      0.0418     -0.0109      0.0108      0.0021
        62        -0.2699      0.2738      0.2543      0.2125      0.0421
        63         0.0732     -0.4540      0.1398      0.2310      0.0458
        64        -0.0384      0.0444      0.1622      0.0298      0.0059
        65         0.0955     -0.1595      0.0900      0.0427      0.0085
        66         0.0491     -0.2215     -0.0712      0.0566      0.0113
        67         0.1454      0.0158      0.0500      0.0239      0.0048
        68         0.0436      0.0682      0.1445      0.0274      0.0055
        69         0.0084      0.0034      0.0776      0.0061      0.0012
        70         0.1198      0.1564     -0.0766      0.0447      0.0090
        71         0.2224      0.0587      0.0678      0.0575      0.0116
        72        -0.1596     -0.5471      0.1020      0.3352      0.0679
        73        -0.0661      0.7316     -0.0505      0.5422      0.1098
        74         0.3764      0.0485      0.0405      0.1457      0.0296
        75         0.1188      0.0995      0.0436      0.0259      0.0053
        76         0.0886      0.2392      0.0096      0.0651      0.0133
        77         0.3672      0.4977      0.0346      0.3838      0.0784
        78         0.0339      0.0378      0.0880      0.0103      0.0021
        79        -0.0011      0.0452      0.0785      0.0082      0.0017
        80        -0.1452     -0.0660      0.0433      0.0273      0.0056
        81        -0.3361      0.1390     -0.0844      0.1394      0.0288
        82        -0.1404      0.1962     -0.0108      0.0583      0.0121
        83        -0.0948      0.2762     -0.0305      0.0862      0.0179
        84        -0.2289     -0.0146     -0.0638      0.0567      0.0118
        85        -0.0008      0.0118     -0.0289      0.0010      0.0002
        86         0.0033     -0.0949     -0.0007      0.0090      0.0019
        87        -0.0832     -0.0498      0.1020      0.0198      0.0042
        88         0.0926      0.0481      0.0034      0.0109      0.0023
        89         0.0783     -0.0592      0.0120      0.0098      0.0021
        90         0.0246      0.0210      0.0194      0.0014      0.0003
        91        -0.1219     -0.0790     -0.0263      0.0218      0.0046
        92         0.0092      0.0347     -0.1653      0.0286      0.0061
        93        -0.0020     -0.1749     -0.0089      0.0307      0.0065
        94         0.0211      0.0592     -0.0779      0.0100      0.0021
        95        -0.0340     -0.0279      0.0072      0.0020      0.0004
        96         0.0508     -0.0036      0.1065      0.0139      0.0030
        97         0.1208     -0.0164      0.0695      0.0197      0.0042
        98         0.0025     -0.0536      0.1104      0.0151      0.0033
        99         0.0317      0.1970      0.0874      0.0475      0.0103
       100         0.0372     -0.1897     -0.0840      0.0444      0.0097
       101        -0.0536      0.1391     -0.0412      0.0239      0.0052
       102        -0.2845      0.1319     -0.1526      0.1216      0.0266
       103        -0.1909     -0.0640     -0.0260      0.0412      0.0091
       104        -0.1605      0.1788      0.0036      0.0578      0.0127
       105         0.2890     -0.0186     -0.0650      0.0881      0.0194
       106         0.7907     -0.2556     -0.0268      0.6912      0.1528
       107         0.1025     -0.2803     -0.1397      0.1086      0.0241
       108         0.3502      0.1213      0.0704      0.1423      0.0316
       109        -0.2184      0.2686      0.0072      0.1199      0.0267
       110         0.1067      0.3780     -0.0098      0.1544      0.0344
       111        -0.0357      0.1842      0.0097      0.0353      0.0079
       112         0.3763     -0.5068     -0.0274      0.3992      0.0892
       113        -0.0161     -0.0363      0.0271      0.0023      0.0005
       114         0.0793      0.0945      0.1245      0.0307      0.0069
       115         0.0367     -0.0468      0.0031      0.0036      0.0008
       116        -0.0445      0.0167     -0.0526      0.0050      0.0011
       117         0.0723     -0.0205      0.0834      0.0126      0.0028
       118         0.0740      0.0031     -0.0082      0.0056      0.0013
       119        -0.0730     -0.0505      0.1289      0.0245      0.0055
       120         0.0528      0.0678     -0.1130      0.0201      0.0046
       121        -0.1490      0.1736      0.0033      0.0524      0.0119
       122        -0.1039     -0.0742     -0.0141      0.0165      0.0038
       123        -0.1852      0.1876      0.1185      0.0836      0.0190
       124        -0.0290      0.0765      0.0316      0.0077      0.0018
       125        -0.0399      0.3504     -0.0433      0.1262      0.0288
       126        -0.0232      0.3756      0.1045      0.1525      0.0349
       127        -0.0737      0.0011      0.0205      0.0059      0.0013
       128         0.1526     -0.3089      0.1555      0.1429      0.0328
       129        -0.1855      0.0315      0.0902      0.0435      0.0100
       130        -0.0174     -0.0099     -0.1265      0.0164      0.0038
       131         0.0666     -0.0175      0.0962      0.0140      0.0032
       132        -0.0635      0.0421     -0.1729      0.0357      0.0083
       133         0.0255      0.1384      0.1542      0.0436      0.0101
       134        -0.0929      0.1120      0.0097      0.0213      0.0049
       135        -0.2321     -0.1844     -0.0174      0.0882      0.0205
       136         0.1441      0.0401      0.0383      0.0238      0.0056
       137        -0.0939      0.0466      0.0321      0.0120      0.0028
       138         0.0988      0.0922     -0.2041      0.0599      0.0140
       139         0.0000     -0.1503      0.0596      0.0262      0.0061
       140         0.0977     -0.0196      0.0129      0.0101      0.0024
       141        -0.0249     -0.1778     -0.0176      0.0326      0.0077
       142         0.1575     -0.0246     -0.0520      0.0281      0.0066
       143        -0.1397     -0.0025      0.0498      0.0220      0.0052
       144        -0.1204     -0.0879     -0.0504      0.0248      0.0058
       145        -0.0678     -0.0196     -0.0702      0.0099      0.0023
       146        -0.0080     -0.0119     -0.2751      0.0759      0.0180
       147         0.0153      0.1327     -0.0032      0.0179      0.0042
       148        -0.1304      0.0796      0.0646      0.0275      0.0065
       149         0.0277     -0.0612      0.0755      0.0102      0.0024
       150        -0.0374     -0.0622     -0.0552      0.0083      0.0020
 Ground to excited state transition velocity dipole moments (Au):
       state          X           Y           Z        Dip. S.      Osc.
         1        -0.4974      0.0195      0.0002      0.2478      1.6872
         2        -0.0804     -0.0848     -0.0218      0.0141      0.0568
         3         0.0029     -0.0430      0.0113      0.0020      0.0078
         4        -0.0056      0.0550      0.0126      0.0032      0.0125
         5        -0.0239     -0.0726     -0.0006      0.0058      0.0226
         6         0.0057      0.0041     -0.0004      0.0000      0.0002
         7         0.1763      0.0319      0.0068      0.0322      0.1192
         8         0.0450      0.1566     -0.0123      0.0267      0.0976
         9        -0.0582     -0.0250     -0.0289      0.0049      0.0174
        10        -0.1412     -0.1523     -0.0017      0.0432      0.1482
        11         0.1074     -0.0306      0.0012      0.0125      0.0406
        12        -0.0708      0.1418      0.0125      0.0253      0.0809
        13         0.2638      0.0393      0.0350      0.0724      0.2186
        14        -0.2568      0.1839      0.0203      0.1002      0.3020
        15         0.1530     -0.1019     -0.0193      0.0342      0.1026
        16         0.0660     -0.0313     -0.0011      0.0053      0.0159
        17         0.0392      0.0859      0.0218      0.0094      0.0276
        18         0.0298     -0.0849      0.0184      0.0084      0.0248
        19        -0.0474     -0.0436     -0.0003      0.0041      0.0120
        20        -0.0090     -0.0162     -0.0044      0.0004      0.0010
        21         0.0191      0.0953     -0.0075      0.0095      0.0266
        22        -0.0688      0.0247     -0.0128      0.0055      0.0154
        23        -0.0001     -0.0139     -0.0474      0.0024      0.0067
        24        -0.0522     -0.0478      0.0047      0.0050      0.0137
        25         0.0117     -0.0534     -0.0102      0.0031      0.0083
        26        -0.0635     -0.0103      0.0051      0.0042      0.0112
        27        -0.2064     -0.1786     -0.0104      0.0746      0.2002
        28         0.3375      0.2459     -0.0190      0.1747      0.4668
        29        -0.3359      0.0511     -0.0062      0.1155      0.3082
        30         0.0681     -0.0381      0.0329      0.0072      0.0189
        31        -0.1474      0.2102     -0.0257      0.0666      0.1746
        32        -0.0742      0.0843      0.0277      0.0134      0.0349
        33         0.0705      0.1024      0.0485      0.0178      0.0453
        34        -0.0414      0.0089     -0.0067      0.0018      0.0046
        35         0.0329     -0.0017      0.0181      0.0014      0.0035
        36         0.0121     -0.0063     -0.0165      0.0005      0.0011
        37        -0.0330      0.0756     -0.0010      0.0068      0.0167
        38        -0.0165      0.0410      0.0037      0.0020      0.0048
        39        -0.0106     -0.0085     -0.0125      0.0003      0.0008
        40        -0.0814     -0.0342     -0.0224      0.0083      0.0200
        41         0.0794     -0.0958      0.0148      0.0157      0.0377
        42        -0.0837      0.1078      0.0185      0.0190      0.0454
        43        -0.0314      0.0481     -0.0026      0.0033      0.0079
        44         0.0277      0.0224     -0.0001      0.0013      0.0030
        45         0.0346     -0.0290      0.0171      0.0023      0.0055
        46         0.0171      0.0218     -0.0120      0.0009      0.0022
        47         0.0149      0.0074     -0.0176      0.0006      0.0014
        48         0.0232      0.0251      0.0135      0.0014      0.0032
        49        -0.0291     -0.0279      0.0311      0.0026      0.0061
        50         0.0366     -0.0455      0.0225      0.0039      0.0091
        51         0.0041     -0.2128     -0.0537      0.0482      0.1110
        52        -0.2291      0.1642     -0.0190      0.0798      0.1836
        53         0.0217      0.0182     -0.0030      0.0008      0.0019
        54         0.0529     -0.0457      0.0350      0.0061      0.0140
        55        -0.0861      0.0986     -0.0456      0.0192      0.0439
        56         0.1186     -0.1150     -0.0209      0.0277      0.0631
        57        -0.0543      0.0696      0.0060      0.0078      0.0178
        58        -0.0002     -0.0096     -0.0551      0.0031      0.0071
        59        -0.0199      0.0304     -0.0157      0.0016      0.0035
        60         0.0032     -0.0154      0.0170      0.0005      0.0012
        61         0.0278     -0.0124      0.0035      0.0009      0.0021
        62         0.0783     -0.0790     -0.0694      0.0172      0.0386
        63        -0.0209      0.1338     -0.0389      0.0199      0.0445
        64         0.0113     -0.0135     -0.0430      0.0022      0.0048
        65        -0.0285      0.0468     -0.0249      0.0036      0.0081
        66        -0.0156      0.0654      0.0199      0.0049      0.0110
        67        -0.0413     -0.0066     -0.0116      0.0019      0.0042
        68        -0.0140     -0.0180     -0.0394      0.0021      0.0046
        69        -0.0026     -0.0010     -0.0209      0.0004      0.0010
        70        -0.0344     -0.0486      0.0222      0.0040      0.0089
        71        -0.0668     -0.0170     -0.0201      0.0052      0.0113
        72         0.0470      0.1659     -0.0284      0.0305      0.0670
        73         0.0159     -0.2198      0.0152      0.0488      0.1071
        74        -0.1126     -0.0150     -0.0123      0.0130      0.0285
        75        -0.0369     -0.0300     -0.0134      0.0024      0.0053
        76        -0.0262     -0.0718     -0.0041      0.0059      0.0128
        77        -0.1152     -0.1488     -0.0092      0.0355      0.0772
        78        -0.0100     -0.0110     -0.0227      0.0007      0.0016
        79         0.0004     -0.0137     -0.0224      0.0007      0.0015
        80         0.0451      0.0205     -0.0129      0.0026      0.0057
        81         0.1034     -0.0423      0.0262      0.0132      0.0284
        82         0.0419     -0.0599      0.0052      0.0054      0.0115
        83         0.0297     -0.0847      0.0096      0.0081      0.0175
        84         0.0694      0.0057      0.0197      0.0052      0.0112
        85         0.0010     -0.0034      0.0068      0.0001      0.0001
        86        -0.0013      0.0296      0.0005      0.0009      0.0019
        87         0.0287      0.0155     -0.0298      0.0020      0.0041
        88        -0.0312     -0.0157      0.0007      0.0012      0.0026
        89        -0.0230      0.0188     -0.0015      0.0009      0.0019
        90        -0.0083     -0.0068     -0.0056      0.0001      0.0003
        91         0.0387      0.0249      0.0045      0.0021      0.0045
        92        -0.0043     -0.0106      0.0463      0.0023      0.0048
        93         0.0031      0.0545      0.0025      0.0030      0.0062
        94        -0.0068     -0.0193      0.0237      0.0010      0.0020
        95         0.0113      0.0086     -0.0011      0.0002      0.0004
        96        -0.0169      0.0010     -0.0319      0.0013      0.0027
        97        -0.0324      0.0031     -0.0204      0.0015      0.0030
        98         0.0021      0.0161     -0.0350      0.0015      0.0031
        99        -0.0109     -0.0640     -0.0289      0.0051      0.0104
       100        -0.0099      0.0614      0.0271      0.0046      0.0094
       101         0.0160     -0.0460      0.0118      0.0025      0.0051
       102         0.0932     -0.0439      0.0434      0.0125      0.0254
       103         0.0623      0.0215      0.0068      0.0044      0.0089
       104         0.0497     -0.0587     -0.0013      0.0059      0.0119
       105        -0.0993      0.0074      0.0197      0.0103      0.0208
       106        -0.2658      0.0848      0.0091      0.0779      0.1566
       107        -0.0340      0.0933      0.0444      0.0118      0.0237
       108        -0.1171     -0.0416     -0.0237      0.0160      0.0320
       109         0.0723     -0.0907     -0.0015      0.0135      0.0269
       110        -0.0341     -0.1255      0.0012      0.0169      0.0338
       111         0.0108     -0.0624     -0.0042      0.0040      0.0080
       112        -0.1244      0.1715      0.0076      0.0449      0.0894
       113         0.0039      0.0107     -0.0109      0.0002      0.0005
       114        -0.0258     -0.0304     -0.0387      0.0031      0.0061
       115        -0.0137      0.0139      0.0004      0.0004      0.0008
       116         0.0151     -0.0049      0.0180      0.0006      0.0011
       117        -0.0251      0.0054     -0.0276      0.0014      0.0028
       118        -0.0257     -0.0016      0.0036      0.0007      0.0013
       119         0.0242      0.0152     -0.0393      0.0024      0.0047
       120        -0.0177     -0.0238      0.0333      0.0020      0.0039
       121         0.0491     -0.0583      0.0005      0.0058      0.0114
       122         0.0356      0.0250      0.0040      0.0019      0.0037
       123         0.0637     -0.0628     -0.0347      0.0092      0.0180
       124         0.0105     -0.0265     -0.0087      0.0009      0.0017
       125         0.0146     -0.1179      0.0108      0.0142      0.0277
       126         0.0124     -0.1267     -0.0313      0.0172      0.0333
       127         0.0252     -0.0012     -0.0067      0.0007      0.0013
       128        -0.0510      0.1046     -0.0509      0.0161      0.0313
       129         0.0638     -0.0109     -0.0311      0.0052      0.0100
       130         0.0057      0.0033      0.0427      0.0019      0.0036
       131        -0.0220      0.0043     -0.0288      0.0013      0.0026
       132         0.0216     -0.0153      0.0551      0.0037      0.0072
       133        -0.0116     -0.0477     -0.0480      0.0047      0.0090
       134         0.0295     -0.0383     -0.0053      0.0024      0.0045
       135         0.0811      0.0646      0.0052      0.0108      0.0206
       136        -0.0498     -0.0121     -0.0156      0.0029      0.0055
       137         0.0347     -0.0146     -0.0123      0.0016      0.0030
       138        -0.0336     -0.0295      0.0634      0.0060      0.0114
       139         0.0001      0.0531     -0.0189      0.0032      0.0060
       140        -0.0356      0.0049     -0.0030      0.0013      0.0025
       141         0.0096      0.0628      0.0045      0.0041      0.0077
       142        -0.0558      0.0051      0.0153      0.0034      0.0064
       143         0.0475      0.0003     -0.0151      0.0025      0.0047
       144         0.0423      0.0320      0.0155      0.0031      0.0058
       145         0.0236      0.0076      0.0226      0.0011      0.0021
       146         0.0018      0.0017      0.0881      0.0078      0.0146
       147        -0.0059     -0.0441      0.0013      0.0020      0.0037
       148         0.0461     -0.0311     -0.0219      0.0036      0.0067
       149        -0.0120      0.0220     -0.0267      0.0013      0.0025
       150         0.0128      0.0222      0.0158      0.0009      0.0017
 Ground to excited state transition magnetic dipole moments (Au):
       state          X           Y           Z
         1         0.0485     -0.3133      1.3473
         2         0.0531      0.0205     -0.2617
         3         0.0986     -0.0847      0.2877
         4         0.0433     -0.1463      0.5598
         5         0.1587      0.0233     -0.3089
         6         0.1849      0.3315     -0.0153
         7        -0.0192     -0.1234      1.0357
         8         0.0319     -0.1892     -1.3024
         9         0.0553     -0.1333     -1.9510
        10         0.0207      0.3379      0.0379
        11         0.0057      0.1282     -0.4984
        12        -0.0018     -0.0730     -0.9513
        13        -0.0159      0.3476      0.6805
        14        -0.0296     -0.6390      1.9385
        15         0.1401      0.0301     -1.0375
        16        -0.2668     -0.4104     -0.1056
        17         0.0137     -0.2724      2.0530
        18        -0.1332      0.3312      1.7375
        19        -0.1678      0.1644      0.5713
        20         0.0764     -0.0618     -0.7630
        21        -0.1370     -0.0676     -0.3273
        22         0.0001     -0.0640     -1.0744
        23        -0.0795      0.0654     -0.3741
        24        -0.0184     -0.1903     -0.8548
        25         0.0942     -0.1378     -1.0462
        26         0.2511     -0.0897      0.4419
        27        -0.1868      0.3008      1.7203
        28         0.0332     -0.0911     -2.4719
        29        -0.0302      0.1314     -2.5419
        30         0.0095      0.0116      0.3244
        31        -0.0503     -0.4219     -0.7645
        32         0.0177     -0.2431      0.5593
        33        -0.0074     -0.0584      2.8204
        34         0.4718      0.0578     -0.7205
        35         0.5001      0.1450      0.2105
        36         0.4125     -0.2235      0.0092
        37        -0.0420      0.0684      0.0695
        38         0.1182     -0.1174      0.0715
        39         0.0177      0.0118      0.1662
        40        -0.0074     -0.0989     -0.2264
        41         0.2214      0.4544     -0.2766
        42        -0.1208     -0.1167      0.1440
        43         0.1948      0.0741      0.1164
        44         0.6552      0.1865     -0.1556
        45         0.0941     -0.4903      0.1627
        46         0.0910     -0.0340     -0.0629
        47        -0.5366     -0.0614     -0.2958
        48        -0.4248     -0.4344      0.4098
        49        -0.0733      0.2129     -0.0201
        50         0.1274      0.4723     -0.4111
        51         0.0618      0.1303     -2.5307
        52        -0.1052     -0.4023     -0.4904
        53         0.0077      0.0176      1.0325
        54        -0.1085      0.0533     -0.0671
        55         0.1489     -0.1581      0.1834
        56         0.1441      0.4188      0.0248
        57        -0.1971      0.5540      0.2309
        58         0.0025      0.4374      0.4582
        59         0.3160     -0.2676     -0.4511
        60        -0.0523     -0.0064      0.1744
        61         0.1087     -0.1953      0.1271
        62         0.0196     -0.4442      0.0672
        63        -0.0796     -0.5012      0.2481
        64        -0.2120      0.3108      0.2830
        65         0.1099      0.3782     -0.3767
        66        -0.0038     -0.3487     -0.7909
        67        -0.0584     -0.2671     -0.6926
        68        -0.0846     -0.1483     -0.6381
        69        -0.0160     -0.0491      0.0993
        70         0.1456      0.1802      0.0911
        71        -0.0789     -0.0718     -1.7956
        72        -0.1499     -0.1593     -0.3999
        73        -0.0029      0.2979      2.3096
        74         0.0893      0.1737     -0.7480
        75        -0.0585      0.1157      0.0343
        76         0.0926      0.0711     -0.8085
        77         0.0606      0.2826     -2.0165
        78        -0.2403      0.0951      0.1612
        79        -0.4109     -0.2532     -0.3438
        80         0.1706     -0.0880      0.5132
        81        -0.0889      0.0265      0.7534
        82        -0.0202     -0.1076     -0.0674
        83        -0.1411      0.1380      0.5921
        84        -0.0989      0.0651      0.0071
        85        -0.2954      0.4670      0.4752
        86        -0.0479      0.0220      0.4483
        87        -0.0714     -0.1677     -0.2418
        88         0.0380      0.6531     -0.2040
        89        -0.3540      0.0662     -0.4307
        90         0.0130     -0.0934     -0.1989
        91        -0.1932      0.6954     -0.2268
        92        -0.2050     -0.1289     -0.4518
        93        -0.1536      0.6007      0.0589
        94         0.0465     -0.2400      0.0671
        95         0.0081      0.0978      0.0228
        96         0.0204     -0.1530      0.0819
        97        -0.0415     -0.0272     -0.0073
        98         0.0306     -0.2439      0.1131
        99         0.4537      0.2302      0.1658
       100         0.2143     -0.1717     -0.3204
       101        -0.1490     -0.2090     -0.0358
       102         0.1103     -0.1686     -0.1392
       103        -0.1554      0.1099      0.1880
       104        -0.0001     -0.0405     -0.8983
       105        -0.0133      0.2696      0.4128
       106        -0.1402     -0.0408      0.9039
       107        -0.0983     -0.2837     -1.1952
       108        -0.4571     -0.3815      1.0112
       109         0.2187      0.0174     -0.5122
       110        -0.3094     -0.1475      0.7953
       111         0.2995     -0.0204      0.0182
       112        -0.2440     -0.0660     -1.0050
       113        -0.1338     -0.2574     -0.2643
       114         0.1684      0.5278     -0.0841
       115        -0.0650     -0.2641     -0.0406
       116        -0.1049     -0.5423     -0.2830
       117         0.2480     -0.4457     -0.0676
       118         0.5287      0.8717      0.0646
       119         0.0124     -0.2183     -0.0905
       120         0.2271      0.0316     -0.2978
       121        -0.0664     -0.6316     -0.5029
       122         0.2749      0.2125     -0.5840
       123         0.0334     -0.1074      0.4091
       124        -0.2351      0.1439      0.3934
       125         0.1582     -0.2884     -0.2377
       126        -0.1077      0.1930     -0.7714
       127         0.0150      0.4156      0.2948
       128         0.1019     -0.5146      0.0687
       129        -0.1839     -0.3661      0.4376
       130         0.4761     -0.1381      0.4409
       131         1.2267      0.3494      0.0744
       132         0.5025      0.0902     -0.0483
       133        -0.2531     -0.2733     -0.1553
       134         0.0211     -0.1821     -0.0022
       135        -0.4235      0.1507     -0.0459
       136         0.2525     -0.2806     -0.0022
       137        -0.3065     -0.2515     -0.2406
[...]
    37  H    0.000000  -0.000000  -0.000000   0.407806  -0.036269   0.000002
    38  H   -0.000000   0.000000  -0.000000   0.409928  -0.033741   0.000000
    39  H    0.000000  -0.000000   0.000000  -0.047679   0.419561   0.000000
    40  H   -0.000000   0.000000  -0.000000  -0.038161   0.414473  -0.000000
    41  H   -0.000000   0.000000   0.000000  -0.039021   0.416844  -0.000000
    42  H    0.000014  -0.000016   0.001596   0.000004  -0.000000   0.424367
    43  H   -0.000246   0.001623   0.002833   0.000000  -0.000000   0.403146
    44  H   -0.000007   0.000012   0.000342  -0.000000   0.000000  -0.046437
    45  H    0.000001  -0.000008   0.000010   0.000000  -0.000000  -0.049331
    46  H    0.000051   0.000281   0.003097  -0.000000   0.000000  -0.029847
              25         26         27         28         29         30
     1  C    0.001859   0.431652  -0.035628  -0.004242  -0.000051   0.000001
     2  C    0.000871  -0.022866   0.418506  -0.017694   0.000017  -0.000000
     3  C   -0.008327   0.001202  -0.053851   0.432778   0.000000   0.000000
     4  C    0.004697   0.003395   0.002019  -0.069518  -0.000000   0.000000
     5  C    0.000206  -0.057280  -0.001458   0.003601   0.000406   0.000021
     6  S   -0.000307   0.000013   0.000035  -0.004504  -0.000000   0.000000
     7  C    0.000562   0.000003  -0.000007   0.000621   0.000000   0.000000
     8  C   -0.000837   0.000001  -0.000375  -0.000053   0.000000   0.000000
     9  N   -0.032352  -0.000002  -0.000681   0.002552   0.000000  -0.000000
    10  S   -0.000832   0.003559  -0.015655   0.000024  -0.003166  -0.000177
    11  C   -0.000027  -0.000719  -0.000445   0.000003  -0.062284   0.010640
    12  C    0.000004   0.000792   0.000255   0.000008   0.017652  -0.002733
    13  N    0.000004  -0.005327   0.000022   0.000002  -0.000024   0.000021
    14  C   -0.000001  -0.000031  -0.000096   0.000000   0.447550  -0.052104
    15  C    0.000000   0.000005   0.000009   0.000000  -0.047174   0.442714
    16  C   -0.000000  -0.000010  -0.000004  -0.000000   0.009519  -0.046494
    17  C    0.000000   0.000184   0.000054   0.000000  -0.005269   0.009314
    18  C    0.000012   0.000000   0.000001  -0.000017  -0.000000   0.000000
    19  C    0.000018   0.000000   0.000001  -0.000002   0.000000   0.000000
    20  C    0.000311  -0.000000  -0.000001   0.000002  -0.000000  -0.000000
    21  C   -0.004919   0.000000   0.000127   0.000008  -0.000000   0.000000
    22  C    0.000000   0.000469   0.000209   0.000046   0.000011  -0.000002
    23  C    0.000000  -0.003531  -0.000061  -0.000015  -0.000001   0.000000
    24  C    0.221887  -0.000001  -0.005617   0.000594   0.000000   0.000000
    25  C    5.042617  -0.000009  -0.005198  -0.000227  -0.000000  -0.000000
    26  H   -0.000009   0.457303   0.003772   0.004477  -0.000001   0.000000
    27  H   -0.005198   0.003772   0.509594   0.004596  -0.000012   0.000000
    28  H   -0.000227   0.004477   0.004596   0.476048  -0.000000   0.000000
    29  H   -0.000000  -0.000001  -0.000012  -0.000000   0.467598  -0.005033
    30  H   -0.000000   0.000000   0.000000   0.000000  -0.005033   0.475492
    31  H    0.000000  -0.000000  -0.000000   0.000000  -0.000086  -0.004970
    32  H    0.000000  -0.000002   0.000000   0.000000   0.000009  -0.000079
    33  H   -0.000001   0.000000  -0.000000   0.000002   0.000000   0.000000
    34  H    0.000001   0.000000  -0.000000  -0.000000   0.000000   0.000000
    35  H    0.000004   0.000000   0.000000   0.000000   0.000000   0.000000
    36  H   -0.002762  -0.000000   0.000001   0.000001   0.000000   0.000000
    37  H   -0.000000   0.000372   0.000071   0.000001  -0.000000  -0.000000
    38  H    0.000000   0.000366  -0.000001  -0.000000   0.000002  -0.000001
    39  H    0.000000   0.000028   0.000000   0.000002   0.000000  -0.000000
    40  H   -0.000000   0.000242   0.000004  -0.000000  -0.000001   0.000000
    41  H    0.000000  -0.000093  -0.000012   0.000009   0.000000  -0.000000
    42  H   -0.042417  -0.000064  -0.006737   0.000146   0.000000  -0.000000
    43  H   -0.033724   0.000002   0.000939  -0.000004  -0.000000  -0.000000
    44  H    0.422399  -0.000003  -0.000013  -0.000062   0.000000  -0.000000
    45  H    0.421103  -0.000000  -0.000579   0.000000   0.000001  -0.000000
    46  H    0.408620   0.000000   0.000581   0.000011   0.000000  -0.000000
              31         32         33         34         35         36
     1  C   -0.000002   0.000035   0.000000  -0.000000  -0.000000   0.000000
     2  C    0.000000   0.000003   0.000000   0.000000   0.000000  -0.000002
     3  C   -0.000000  -0.000000  -0.000016   0.000000  -0.000000   0.000027
     4  C   -0.000000   0.000000   0.000368   0.000017   0.000027  -0.000469
     5  C    0.000028  -0.000550  -0.000000   0.000000   0.000000   0.000000
     6  S   -0.000000  -0.000000  -0.002992  -0.000159   0.000007  -0.000202
     7  C   -0.000000   0.000000  -0.061250   0.010816  -0.002067   0.004741
     8  C   -0.000000   0.000000   0.017233  -0.002943   0.010728  -0.036893
     9  N    0.000000   0.000000  -0.000056   0.000024  -0.000100  -0.002708
    10  S    0.000005  -0.000122   0.000000   0.000000   0.000000   0.000000
    11  C   -0.002296   0.005540  -0.000000   0.000000   0.000000   0.000000
    12  C    0.011037  -0.038529   0.000000  -0.000000   0.000000  -0.000000
    13  N   -0.000085  -0.002323   0.000000  -0.000000  -0.000000   0.000000
    14  C    0.008395  -0.000996  -0.000000   0.000000  -0.000000   0.000000
    15  C   -0.045098   0.004898   0.000000  -0.000000   0.000000  -0.000000
    16  C    0.438564  -0.027368  -0.000000   0.000000   0.000000   0.000000
    17  C   -0.049053   0.427619   0.000000  -0.000000   0.000000  -0.000000
    18  C   -0.000000   0.000000   0.446710  -0.052337   0.008118  -0.000637
    19  C    0.000000   0.000000  -0.047212   0.443241  -0.044632   0.004455
    20  C    0.000000  -0.000000   0.009394  -0.046885   0.437661  -0.025359
    21  C    0.000000   0.000000  -0.005052   0.009500  -0.048165   0.424940
    22  C   -0.000010   0.000289   0.000000   0.000000  -0.000000   0.000000
    23  C    0.000003  -0.001422  -0.000000  -0.000000  -0.000000  -0.000000
    24  C    0.000000  -0.000000   0.000017  -0.000003  -0.000006   0.001400
    25  C    0.000000   0.000000  -0.000001   0.000001   0.000004  -0.002762
    26  H   -0.000000  -0.000002   0.000000   0.000000   0.000000  -0.000000
    27  H   -0.000000   0.000000  -0.000000  -0.000000   0.000000   0.000001
    28  H    0.000000   0.000000   0.000002  -0.000000   0.000000   0.000001
    29  H   -0.000086   0.000009   0.000000   0.000000   0.000000   0.000000
    30  H   -0.004970  -0.000079   0.000000   0.000000   0.000000   0.000000
    31  H    0.473716  -0.004478  -0.000000  -0.000000  -0.000000   0.000000
    32  H   -0.004478   0.449301  -0.000000  -0.000000   0.000000   0.000000
    33  H   -0.000000  -0.000000   0.467225  -0.005118  -0.000087   0.000011
    34  H   -0.000000  -0.000000  -0.005118   0.474907  -0.004967  -0.000074
    35  H   -0.000000   0.000000  -0.000087  -0.004967   0.472939  -0.004391
    36  H    0.000000   0.000000   0.000011  -0.000074  -0.004391   0.445187
    37  H   -0.000000   0.000443   0.000000  -0.000000   0.000000  -0.000000
    38  H   -0.000016  -0.001663   0.000000  -0.000000  -0.000000  -0.000000
    39  H    0.000000   0.000071   0.000000  -0.000000   0.000000  -0.000000
    40  H    0.000001   0.000433   0.000000   0.000000   0.000000  -0.000000
    41  H   -0.000001   0.000015   0.000000  -0.000000  -0.000000   0.000000
    42  H    0.000000  -0.000000  -0.000001   0.000000  -0.000001   0.000488
    43  H    0.000000   0.000000   0.000003  -0.000000  -0.000027  -0.001386
    44  H    0.000000   0.000000   0.000000  -0.000000  -0.000001   0.000107
    45  H    0.000000   0.000000   0.000000  -0.000000   0.000000   0.000100
    46  H   -0.000000  -0.000000  -0.000001   0.000000   0.000005   0.000362
              37         38         39         40         41         42
     1  C    0.017560  -0.000234  -0.000166   0.000960   0.003144   0.000428
     2  C    0.002087   0.000085  -0.000010  -0.000006   0.000391  -0.009117
     3  C   -0.000238  -0.000000   0.000011  -0.000006   0.000021   0.015618
     4  C    0.000044  -0.000000   0.000000   0.000000   0.000000  -0.019603
     5  C   -0.035459   0.009425   0.000383  -0.001995  -0.000777  -0.000310
     6  S    0.000000  -0.000000  -0.000000   0.000000   0.000000   0.000165
     7  C    0.000000   0.000000   0.000000   0.000000   0.000000  -0.000021
     8  C   -0.000000  -0.000000   0.000000   0.000000  -0.000000   0.007934
     9  N    0.000000  -0.000000  -0.000000   0.000000  -0.000000  -0.032263
    10  S   -0.000029  -0.000438   0.000021  -0.000032  -0.000182   0.001035
    11  C   -0.000445  -0.001059  -0.000026   0.000419  -0.000249   0.000016
    12  C    0.009320  -0.021771   0.000058   0.000050  -0.001775  -0.000003
    13  N   -0.020941  -0.019345   0.006357  -0.000659  -0.000009   0.000003
    14  C   -0.000030   0.000331  -0.000002  -0.000081   0.000028   0.000000
    15  C    0.000012  -0.000274   0.000001   0.000043  -0.000007  -0.000000
    16  C   -0.000039   0.002328   0.000002   0.000069   0.000035   0.000000
    17  C    0.001429   0.002602   0.000029   0.002614   0.000436  -0.000000
    18  C    0.000000   0.000000   0.000000   0.000000   0.000000  -0.000040
    19  C    0.000000  -0.000000   0.000000  -0.000000  -0.000000   0.000014
    20  C   -0.000000   0.000000  -0.000000   0.000000   0.000000  -0.000016
    21  C   -0.000000  -0.000000   0.000000  -0.000000   0.000000   0.001596
    22  C    0.407806   0.409928  -0.047679  -0.038161  -0.039021   0.000004
    23  C   -0.036269  -0.033741   0.419561   0.414473   0.416844  -0.000000
    24  C    0.000002   0.000000   0.000000  -0.000000  -0.000000   0.424367
    25  C   -0.000000   0.000000   0.000000  -0.000000   0.000000  -0.042417
    26  H    0.000372   0.000366   0.000028   0.000242  -0.000093  -0.000064
    27  H    0.000071  -0.000001   0.000000   0.000004  -0.000012  -0.006737
    28  H    0.000001  -0.000000   0.000002  -0.000000   0.000009   0.000146
    29  H   -0.000000   0.000002   0.000000  -0.000001   0.000000   0.000000
    30  H   -0.000000  -0.000001  -0.000000   0.000000  -0.000000  -0.000000
    31  H   -0.000000  -0.000016   0.000000   0.000001  -0.000001   0.000000
    32  H    0.000443  -0.001663   0.000071   0.000433   0.000015  -0.000000
    33  H    0.000000   0.000000   0.000000   0.000000   0.000000  -0.000001
    34  H   -0.000000  -0.000000  -0.000000   0.000000  -0.000000   0.000000
    35  H    0.000000  -0.000000   0.000000   0.000000  -0.000000  -0.000001
    36  H   -0.000000  -0.000000  -0.000000  -0.000000   0.000000   0.000488
    37  H    0.508077  -0.021292  -0.001182   0.004503  -0.004300  -0.000002
    38  H   -0.021292   0.507604  -0.001521  -0.004610   0.004417  -0.000000
    39  H   -0.001182  -0.001521   0.520079  -0.022326  -0.022801  -0.000000
    40  H    0.004503  -0.004610  -0.022326   0.521602  -0.025074   0.000000
    41  H   -0.004300   0.004417  -0.022801  -0.025074   0.520978  -0.000000
    42  H   -0.000002  -0.000000  -0.000000   0.000000  -0.000000   0.487549
    43  H   -0.000000  -0.000000  -0.000000  -0.000000   0.000000  -0.012975
    44  H   -0.000000  -0.000000  -0.000000  -0.000000   0.000000  -0.002389
    45  H   -0.000000  -0.000000  -0.000000   0.000000   0.000000  -0.001746
    46  H    0.000000   0.000000  -0.000000  -0.000000   0.000000   0.003775
              43         44         45         46
     1  C    0.000007   0.000850  -0.000172  -0.000006
     2  C    0.001933   0.002051   0.000862  -0.000711
     3  C   -0.001932  -0.004821  -0.000135   0.001127
     4  C    0.008688   0.003654   0.000075  -0.001533
     5  C    0.000002   0.000041   0.000085  -0.000011
     6  S   -0.000395  -0.000185   0.000022  -0.000015
     7  C   -0.000839  -0.000137   0.000006   0.000423
     8  C   -0.017594  -0.001486   0.000292  -0.001214
     9  N   -0.019259   0.000813   0.006169  -0.001243
    10  S    0.000004   0.000748   0.000236   0.000039
    11  C   -0.000000  -0.000006  -0.000000   0.000001
    12  C    0.000000   0.000001  -0.000000  -0.000000
    13  N    0.000000   0.000003   0.000000  -0.000000
    14  C   -0.000000  -0.000001   0.000002   0.000000
    15  C    0.000000  -0.000000  -0.000000  -0.000000
    16  C   -0.000000   0.000000   0.000000   0.000000
    17  C    0.000000  -0.000000  -0.000000  -0.000000
    18  C    0.000306   0.000032  -0.000003  -0.000101
    19  C   -0.000246  -0.000007   0.000001   0.000051
    20  C    0.001623   0.000012  -0.000008   0.000281
    21  C    0.002833   0.000342   0.000010   0.003097
    22  C    0.000000  -0.000000   0.000000  -0.000000
    23  C   -0.000000   0.000000  -0.000000   0.000000
    24  C    0.403146  -0.046437  -0.049331  -0.029847
    25  C   -0.033724   0.422399   0.421103   0.408620
    26  H    0.000002  -0.000003  -0.000000   0.000000
    27  H    0.000939  -0.000013  -0.000579   0.000581
    28  H   -0.000004  -0.000062   0.000000   0.000011
    29  H   -0.000000   0.000000   0.000001   0.000000
    30  H   -0.000000  -0.000000  -0.000000  -0.000000
    31  H    0.000000   0.000000   0.000000  -0.000000
    32  H    0.000000   0.000000   0.000000  -0.000000
    33  H    0.000003   0.000000   0.000000  -0.000001
    34  H   -0.000000  -0.000000  -0.000000   0.000000
    35  H   -0.000027  -0.000001   0.000000   0.000005
    36  H   -0.001386   0.000107   0.000100   0.000362
    37  H   -0.000000  -0.000000  -0.000000   0.000000
    38  H   -0.000000  -0.000000  -0.000000   0.000000
    39  H   -0.000000  -0.000000  -0.000000  -0.000000
    40  H   -0.000000  -0.000000   0.000000  -0.000000
    41  H    0.000000   0.000000   0.000000   0.000000
    42  H   -0.012975  -0.002389  -0.001746   0.003775
    43  H    0.493507   0.003750  -0.000352  -0.005019
    44  H    0.003750   0.517886  -0.022931  -0.024097
    45  H   -0.000352  -0.022931   0.514124  -0.020061
    46  H   -0.005019  -0.024097  -0.020061   0.510533
 Mulliken charges:
               1
     1  C   -0.340030
     2  C   -0.062952
     3  C   -0.326591
     4  C    0.191100
     5  C    0.230600
     6  S    0.079774
     7  C   -0.005663
     8  C    0.178375
     9  N    0.012594
    10  S    0.045308
    11  C    0.008480
    12  C    0.164001
    13  N    0.001229
    14  C   -0.199818
    15  C   -0.171225
    16  C   -0.151136
    17  C   -0.261859
    18  C   -0.192096
    19  C   -0.168332
    20  C   -0.154379
    21  C   -0.265119
    22  C   -0.176700
    23  C   -0.392711
    24  C   -0.228584
    25  C   -0.393232
    26  H    0.182103
    27  H    0.185636
    28  H    0.170805
    29  H    0.180336
    30  H    0.173390
    31  H    0.174346
    32  H    0.188879
    33  H    0.180821
    34  H    0.173979
    35  H    0.174956
    36  H    0.193065
    37  H    0.168498
    38  H    0.168876
    39  H    0.149111
    40  H    0.147538
    41  H    0.147983
    42  H    0.184564
    43  H    0.177011
    44  H    0.149885
    45  H    0.152230
    46  H    0.154953
 Sum of Mulliken charges =   1.00000
 Mulliken charges with hydrogens summed into heavy atoms:
               1
     1  C   -0.157927
     2  C    0.122684
     3  C   -0.155786
     4  C    0.191100
     5  C    0.230600
     6  S    0.079774
     7  C   -0.005663
     8  C    0.178375
     9  N    0.012594
    10  S    0.045308
    11  C    0.008480
    12  C    0.164001
    13  N    0.001229
    14  C   -0.019482
    15  C    0.002165
    16  C    0.023210
    17  C   -0.072980
    18  C   -0.011275
    19  C    0.005648
    20  C    0.020577
    21  C   -0.072054
    22  C    0.160674
    23  C    0.051921
    24  C    0.132991
    25  C    0.063836
 Electronic spatial extent (au):  <R**2>=          15563.2070
 Charge=              1.0000 electrons
 Dipole moment (field-independent basis, Debye):
    X=              1.0966    Y=              0.2017    Z=              1.2652  Tot=              1.6865
 Quadrupole moment (field-independent basis, Debye-Ang):
   XX=            -54.4469   YY=           -126.4946   ZZ=           -166.7835
   XY=             15.3665   XZ=              1.6223   YZ=              0.8874
 Traceless Quadrupole moment (field-independent basis, Debye-Ang):
   XX=             61.4614   YY=            -10.5863   ZZ=            -50.8752
   XY=             15.3665   XZ=              1.6223   YZ=              0.8874
 Octapole moment (field-independent basis, Debye-Ang**2):
  XXX=              7.1339  YYY=             -2.2713  ZZZ=              4.1964  XYY=             26.9611
  XXY=              1.0744  XXZ=             -6.1680  XZZ=              1.8327  YZZ=              3.3279
  YYZ=              5.1771  XYZ=             29.4864
 Hexadecapole moment (field-independent basis, Debye-Ang**3):
 XXXX=         -13793.9463 YYYY=          -2343.0192 ZZZZ=           -333.4766 XXXY=            106.1674
 XXXZ=            158.7240 YYYX=             80.4132 YYYZ=             17.7190 ZZZX=              0.1267
 ZZZY=             -2.9526 XXYY=          -2884.0923 XXZZ=          -3432.3226 YYZZ=           -502.8209
 XXYZ=             22.2933 YYXZ=            -11.1709 ZZXY=             34.3822
 N-N= 2.285648745017D+03 E-N=-8.580725085304D+03  KE= 1.712505466233D+03
 Unable to Open any file for archive entry.
 1\1\GINC-CN06\SP\RCAM-B3LYP TD-FC\def2TZVP\C21H21N2S2(1+)\2100011873\0
 4-Nov-2023\0\\# td=(nstates=150) CAM-b3lyp/def2TZVP scrf(smd, solvent=
 ethanol)\\A-2\\1,1\C,0,1.185932,1.124188,0.259065\C,0,-0.064042,0.5188
 94,0.184736\C,0,-1.255062,1.232433,0.206071\C,0,-2.576908,0.775971,0.1
 34368\C,0,2.392634,0.431471,0.171283\S,0,-3.827667,1.970009,-0.187075\
 C,0,-5.077877,0.744792,-0.134775\C,0,-4.509195,-0.50864,0.113846\N,0,-
 3.118372,-0.458179,0.279721\S,0,2.505198,-1.300121,-0.125106\C,0,4.260
 315,-1.225762,-0.102553\C,0,4.688784,0.08701,0.119416\N,0,3.627512,0.9
 81655,0.287411\C,0,5.159317,-2.267461,-0.279503\C,0,6.517913,-1.973596
 ,-0.237257\C,0,6.95394,-0.663841,-0.025333\C,0,6.051566,0.378213,0.153
 458\C,0,-6.446804,0.904176,-0.304215\C,0,-7.251229,-0.226106,-0.226408
 \C,0,-6.689747,-1.482485,0.014868\C,0,-5.320051,-1.640504,0.18625\C,0,
 3.847144,2.415669,0.55458\C,0,3.911762,3.249637,-0.717632\C,0,-2.36936
 9,-1.660308,0.692423\C,0,-1.918854,-2.522991,-0.47911\H,0,1.228852,2.1
 99196,0.376562\H,0,-0.096636,-0.556945,0.072235\H,0,-1.165193,2.31437,
 0.224199\H,0,4.813961,-3.279951,-0.448352\H,0,7.240415,-2.768718,-0.37
 396\H,0,8.015538,-0.449707,-0.002068\H,0,6.406822,1.388085,0.306065\H,
 0,-6.875736,1.880738,-0.491225\H,0,-8.32188,-0.129159,-0.357431\H,0,-7
 .330326,-2.354283,0.06736\H,0,-4.901973,-2.621689,0.363736\H,0,3.04858
 5,2.754296,1.212168\H,0,4.77271,2.494849,1.122044\H,0,4.082538,4.29549
 6,-0.452515\H,0,4.728911,2.924468,-1.364544\H,0,2.978199,3.187215,-1.2
 79982\H,0,-1.531667,-1.329317,1.302601\H,0,-3.027666,-2.224702,1.35176
 8\H,0,-1.2761,-1.972556,-1.168349\H,0,-1.359149,-3.379171,-0.096017\H,
 0,-2.775672,-2.899604,-1.040801\\Version=ES64L-G16RevC.02\State=1-A\HF
 =-1718.5039343\RMSD=5.177e-09\PG=C01 [X(C21H21N2S2)]\\@
 The archive entry for this job was punched.


 WE SHOULD BE CAREFUL TO GET OUT OF AN EXPERIENCE ONLY THE WISDOM
 THAT IS IN IT -- AND STOP THERE;
 LEST WE BE LIKE THE CAT THAT SITS DOWN ON A HOT STOVE-LID.
 SHE WILL NEVER SIT DOWN ON A HOT STOVE LID AGAIN;
 BUT ALSO SHE WILL NEVER SIT DOWN ON A COLD ONE ANY MORE.

                                                     -- MARK TWAIN
 Job cpu time:       3 days 19 hours 14 minutes 59.1 seconds.
 Elapsed time:       0 days  2 hours 59 minutes 24.4 seconds.
 File lengths (MBytes):  RWF=  33264 Int=      0 D2E=      0 Chk=   3408 Scr=     32
 Normal termination of Gaussian 16 at Sat Nov  4 04:55:58 2023.
