 Entering Gaussian System, Link 0=g16
 Initial command:
 /nfs-share/home/2100011873/Gaussian16_AVX2/g16/l1.exe "/nfs-share/home/2100011873/GaussTmp/Gau-260046.inp" -scrdir="/nfs-share/home/2100011873/GaussTmp/"
 Entering Link 1 = /nfs-share/home/2100011873/Gaussian16_AVX2/g16/l1.exe PID=    260047.
  
 Copyright (c) 1988-2021, Gaussian, Inc.  All Rights Reserved.
  
 This is part of the Gaussian(R) 16 program.  It is based on
 the Gaussian(R) 09 system (copyright 2009, Gaussian, Inc.),
 the Gaussian(R) 03 system (copyright 2003, Gaussian, Inc.),
 the Gaussian(R) 98 system (copyright 1998, Gaussian, Inc.),
 the Gaussian(R) 94 system (copyright 1995, Gaussian, Inc.),
 the Gaussian 92(TM) system (copyright 1992, Gaussian, Inc.),
 the Gaussian 90(TM) system (copyright 1990, Gaussian, Inc.),
 the Gaussian 88(TM) system (copyright 1988, Gaussian, Inc.),
 the Gaussian 86(TM) system (copyright 1986, Carnegie Mellon
 University), and the Gaussian 82(TM) system (copyright 1983,
 Carnegie Mellon University). Gaussian is a federally registered
 trademark of Gaussian, Inc.
  
 This software contains proprietary and confidential information,
 including trade secrets, belonging to Gaussian, Inc.
  
 This software is provided under written license and may be
 used, copied, transmitted, or stored only in accord with that
 written license.
  
 The following legend is applicable only to US Government
 contracts under FAR:
  
                    RESTRICTED RIGHTS LEGEND
  
 Use, reproduction and disclosure by the US Government is
 subject to restrictions as set forth in subparagraphs (a)
 and (c) of the Commercial Computer Software - Restricted
 Rights clause in FAR 52.227-19.
  
 Gaussian, Inc.
 340 Quinnipiac St., Bldg. 40, Wallingford CT 06492
  
  
 ---------------------------------------------------------------
 Warning -- This program may not be used in any manner that
 competes with the business of Gaussian, Inc. or will provide
 assistance to any competitor of Gaussian, Inc.  The licensee
 of this program is prohibited from giving any competitor of
 Gaussian, Inc. access to this program.  By using this program,
 the user acknowledges that Gaussian, Inc. is engaged in the
 business of creating and licensing software in the field of
 computational chemistry and represents and warrants to the
 licensee that it is not a competitor of Gaussian, Inc. and that
 it will not use this program in any manner prohibited above.
 ---------------------------------------------------------------
  

 Cite this work as:
 Gaussian 16, Revision C.02,
 M. J. Frisch, G. W. Trucks, H. B. Schlegel, G. E. Scuseria, 
 M. A. Robb, J. R. Cheeseman, G. Scalmani, V. Barone, 
 G. A. Petersson, H. Nakatsuji, X. Li, M. Caricato, A. V. Marenich, 
 J. Bloino, B. G. Janesko, R. Gomperts, B. Mennucci, H. P. Hratchian, 
 J. V. Ortiz, A. F. Izmaylov, J. L. Sonnenberg, D. Williams-Young, 
 F. Ding, F. Lipparini, F. Egidi, J. Goings, B. Peng, A. Petrone, 
 T. Henderson, D. Ranasinghe, V. G. Zakrzewski, J. Gao, N. Rega, 
 G. Zheng, W. Liang, M. Hada, M. Ehara, K. Toyota, R. Fukuda, 
 J. Hasegawa, M. Ishida, T. Nakajima, Y. Honda, O. Kitao, H. Nakai, 
 T. Vreven, K. Throssell, J. A. Montgomery, Jr., J. E. Peralta, 
 F. Ogliaro, M. J. Bearpark, J. J. Heyd, E. N. Brothers, K. N. Kudin, 
 V. N. Staroverov, T. A. Keith, R. Kobayashi, J. Normand, 
 K. Raghavachari, A. P. Rendell, J. C. Burant, S. S. Iyengar, 
 J. Tomasi, M. Cossi, J. M. Millam, M. Klene, C. Adamo, R. Cammi, 
 J. W. Ochterski, R. L. Martin, K. Morokuma, O. Farkas, 
 J. B. Foresman, and D. J. Fox, Gaussian, Inc., Wallingford CT, 2019.
 
 ******************************************
 Gaussian 16:  ES64L-G16RevC.02  7-Dec-2021
                 4-Nov-2023 
 ******************************************
 %nprocshared=32
 Will use up to   32 processors via shared memory.
 %mem=128GB
 ---------------------------------------------------------------
 # td=(nstates=50) CAM-b3lyp/def2TZVP scrf(smd, solvent=ethanol)
 ---------------------------------------------------------------
 1/38=1,172=1/1;
 2/12=2,17=6,18=5,40=1/2;
 3/5=44,7=101,11=9,25=1,30=1,70=32201,72=4,74=-40/1,2,3,8;
 4//1;
 5/5=2,38=5,53=4/2;
 8/6=1,10=1,108=50/1;
 9/41=50,42=1,70=2/14;
 6/7=2,8=2,9=2,10=2/1;
 99/5=1,9=1/99;
 ---
 B-2
 ---
 Symbolic Z-matrix:
 Charge =  0 Multiplicity = 1
 C                     4.18604  -0.98524  -0.00011 
 C                     2.96568  -0.09996   0.00002 
 C                     1.72426  -0.63647  -0.00021 
 C                     0.45258   0.05967  -0.00018 
 C                    -0.74108  -0.57941  -0.00021 
 C                    -2.06437   0.04042  -0.00014 
 C                    -3.15288  -0.76323   0.00025 
 C                    -4.60417  -0.38585   0.00043 
 C                     3.26039   1.37827   0.00057 
 C                    -2.13318   1.55026  -0.00054 
 H                     4.81718  -0.79122  -0.87967 
 H                     4.8171   -0.79165   0.8796 
 H                     3.9221   -2.04745  -0.00037 
 H                     1.65238  -1.72528  -0.00049 
 H                     0.46913   1.14647  -0.00011 
 H                    -0.73542  -1.67054  -0.0003 
 H                    -2.96813  -1.83864   0.00044 
 H                    -4.77347   0.69375   0.00148 
 H                    -5.11489  -0.80271  -0.87923 
 H                    -5.11504  -0.80447   0.87914 
 H                     2.363     2.00076   0.00008 
 H                     3.85901   1.65372   0.88055 
 H                     3.86032   1.65418  -0.87836 
 H                    -1.62727   1.96404  -0.8821 
 H                    -3.15869   1.92368  -0.00045 
 H                    -1.62693   1.9646    0.88057 
 
                          Input orientation:                          
 ---------------------------------------------------------------------
 Center     Atomic      Atomic             Coordinates (Angstroms)
 Number     Number       Type             X           Y           Z
 ---------------------------------------------------------------------
      1          6           0        4.186043   -0.985243   -0.000113
      2          6           0        2.965678   -0.099955    0.000017
      3          6           0        1.724259   -0.636470   -0.000213
      4          6           0        0.452578    0.059668   -0.000179
      5          6           0       -0.741079   -0.579413   -0.000205
      6          6           0       -2.064372    0.040415   -0.000137
      7          6           0       -3.152878   -0.763225    0.000253
      8          6           0       -4.604173   -0.385851    0.000427
      9          6           0        3.260391    1.378273    0.000567
     10          6           0       -2.133175    1.550261   -0.000541
     11          1           0        4.817179   -0.791217   -0.879673
     12          1           0        4.817098   -0.791647    0.879598
     13          1           0        3.922096   -2.047445   -0.000374
     14          1           0        1.652379   -1.725280   -0.000493
     15          1           0        0.469127    1.146468   -0.000113
     16          1           0       -0.735417   -1.670538   -0.000304
     17          1           0       -2.968126   -1.838635    0.000440
     18          1           0       -4.773466    0.693748    0.001475
     19          1           0       -5.114894   -0.802710   -0.879231
     20          1           0       -5.115042   -0.804470    0.879137
     21          1           0        2.363003    2.000757    0.000075
     22          1           0        3.859006    1.653716    0.880554
     23          1           0        3.860320    1.654180   -0.878355
     24          1           0       -1.627265    1.964044   -0.882102
     25          1           0       -3.158688    1.923675   -0.000452
     26          1           0       -1.626926    1.964596    0.880567
 ---------------------------------------------------------------------
                    Distance matrix (angstroms):
                    1          2          3          4          5
     1  C    0.000000
     2  C    1.507656   0.000000
     3  C    2.486367   1.352394   0.000000
     4  C    3.876932   2.518164   1.449752   0.000000
     5  C    4.943807   3.737637   2.465998   1.353973   0.000000
     6  C    6.334008   5.032008   3.848623   2.517024   1.461264
     7  C    7.342278   6.154401   4.878784   3.698171   2.418793
     8  C    8.810628   7.575248   6.333393   5.076339   3.867940
     9  C    2.538314   1.507320   2.533553   3.102021   4.454694
    10  C    6.808913   5.359246   4.434139   2.984625   2.544296
    11  H    1.099820   2.163274   3.219247   4.532908   5.631390
    12  H    1.099819   2.163298   3.219286   4.532966   5.631379
    13  H    1.094505   2.169667   2.611769   4.059246   4.888795
    14  H    2.639528   2.089602   1.091180   2.150712   2.653611
    15  H    4.284817   2.790401   2.180418   1.086926   2.107905
    16  H    4.968943   4.020552   2.668202   2.098796   1.091140
    17  H    7.204888   6.183287   4.843932   3.912131   2.558394
    18  H    9.115471   7.779738   6.632489   5.264370   4.228603
    19  H    9.344174   8.158590   6.897414   5.702032   4.466856
    20  H    9.344300   8.158874   6.897646   5.702484   4.467152
    21  H    3.498524   2.185454   2.713478   2.723518   4.036410
    22  H    2.801184   2.156094   3.252360   3.862697   5.188775
    23  H    2.800707   2.156133   3.252840   3.863466   5.189697
    24  H    6.578050   5.112079   4.332795   2.954688   2.834121
    25  H    7.899802   6.450034   5.513394   4.063959   3.479983
    26  H    6.577823   5.111727   4.332639   2.954454   2.834161
                    6          7          8          9         10
     6  C    0.000000
     7  C    1.353027   0.000000
     8  C    2.575324   1.499556   0.000000
     9  C    5.490261   6.761363   8.059994   0.000000
    10  C    1.511413   2.528243   3.139166   5.396308   0.000000
    11  H    6.987198   8.018532   9.471049   2.811601   7.386665
    12  H    6.987195   8.018390   9.470901   2.811509   7.386845
    13  H    6.340107   7.190583   8.686666   3.489040   7.043422
    14  H    4.114841   4.900617   6.398321   3.495389   5.005955
    15  H    2.764411   4.094612   5.299658   2.800873   2.633444
    16  H    2.166444   2.582118   4.076481   5.026105   3.511022
    17  H    2.085090   1.091165   2.187974   7.010201   3.490238
    18  H    2.786761   2.179238   1.092792   8.062967   2.775744
    19  H    3.284715   2.150479   1.099275   8.699203   3.898617
    20  H    3.285352   2.150401   1.099254   8.699663   3.900016
    21  H    4.841961   6.169647   7.364607   1.092150   4.518690
    22  H    6.201997   7.468805   8.749849   1.099357   6.057497
    23  H    6.203022   7.469990   8.751093   1.099338   6.058328
    24  H    2.160850   3.247159   3.893950   5.001141   1.097411
    25  H    2.178117   2.686906   2.724580   6.442208   1.091382
    26  H    2.160896   3.247228   3.894001   5.000404   1.097412
                   11         12         13         14         15
    11  H    0.000000
    12  H    1.759271   0.000000
    13  H    1.775514   1.775502   0.000000
    14  H    3.414878   3.414920   2.292467   0.000000
    15  H    4.840848   4.840974   4.703624   3.105966   0.000000
    16  H    5.690151   5.690088   4.672739   2.388423   3.063731
    17  H    7.904597   7.904354   6.893385   4.621895   4.552532
    18  H    9.744846   9.744558   9.117398   6.866089   5.262104
    19  H    9.932080  10.086529   9.164548   6.886167   5.979418
    20  H   10.086754   9.932148   9.164518   6.886191   5.980149
    21  H    3.819955   3.820165   4.338054   3.793196   2.077637
    22  H    3.161359   2.626355   3.805077   4.130746   3.538948
    23  H    2.625937   3.160363   3.804825   4.131149   3.539671
    24  H    7.008732   7.226841   6.903977   5.014420   2.416856
    25  H    8.471017   8.471164   8.118331   6.038314   3.710134
    26  H    7.226302   7.008732   6.903925   5.014508   2.416272
                   16         17         18         19         20
    16  H    0.000000
    17  H    2.239028   0.000000
    18  H    4.679283   3.110019   0.000000
    19  H    4.550325   2.540782   1.769633   0.000000
    20  H    4.550231   2.539853   1.769639   1.758369   0.000000
    21  H    4.804021   6.569769   7.255168   8.034398   8.035123
    22  H    5.738928   7.718863   8.730057   9.468989   9.304634
    23  H    5.739819   7.720085   8.731483   9.305416   9.470526
    24  H    3.844886   4.127609   3.506129   4.451796   4.788655
    25  H    4.334814   3.767133   2.029835   3.468742   3.470414
    26  H    3.845117   4.127712   3.505506   4.787566   4.453614
                   21         22         23         24         25
    21  H    0.000000
    22  H    1.770228   0.000000
    23  H    1.770230   1.758910   0.000000
    24  H    4.086786   5.770826   5.496328   0.000000
    25  H    5.522229   7.077929   7.078829   1.767539   0.000000
    26  H    4.086087   5.494734   5.770618   1.762669   1.767530
                   26
    26  H    0.000000
 Stoichiometry    C10H16
 Framework group  C1[X(C10H16)]
 Deg. of freedom    72
 Full point group                 C1      NOp   1
 Largest Abelian subgroup         C1      NOp   1
 Largest concise Abelian subgroup C1      NOp   1
                         Standard orientation:                         
 ---------------------------------------------------------------------
 Center     Atomic      Atomic             Coordinates (Angstroms)
 Number     Number       Type             X           Y           Z
 ---------------------------------------------------------------------
      1          6           0        4.186043   -0.985243   -0.000113
      2          6           0        2.965678   -0.099955    0.000017
      3          6           0        1.724259   -0.636470   -0.000213
      4          6           0        0.452578    0.059668   -0.000179
      5          6           0       -0.741079   -0.579413   -0.000205
      6          6           0       -2.064372    0.040415   -0.000137
      7          6           0       -3.152878   -0.763225    0.000253
      8          6           0       -4.604173   -0.385851    0.000427
      9          6           0        3.260391    1.378273    0.000567
     10          6           0       -2.133175    1.550261   -0.000541
     11          1           0        4.817179   -0.791217   -0.879673
     12          1           0        4.817098   -0.791647    0.879598
     13          1           0        3.922096   -2.047445   -0.000374
     14          1           0        1.652379   -1.725280   -0.000493
     15          1           0        0.469127    1.146468   -0.000113
     16          1           0       -0.735417   -1.670538   -0.000304
     17          1           0       -2.968126   -1.838635    0.000440
     18          1           0       -4.773466    0.693748    0.001475
     19          1           0       -5.114894   -0.802710   -0.879231
     20          1           0       -5.115042   -0.804470    0.879137
     21          1           0        2.363003    2.000757    0.000075
     22          1           0        3.859006    1.653716    0.880554
     23          1           0        3.860320    1.654180   -0.878355
     24          1           0       -1.627265    1.964044   -0.882102
     25          1           0       -3.158688    1.923675   -0.000452
     26          1           0       -1.626926    1.964596    0.880567
 ---------------------------------------------------------------------
 Rotational constants (GHZ):           4.0045797           0.4300443           0.3921027
 Standard basis: def2TZVP (5D, 7F)
 There are   456 symmetry adapted cartesian basis functions of A   symmetry.
 There are   406 symmetry adapted basis functions of A   symmetry.
   406 basis functions,   638 primitive gaussians,   456 cartesian basis functions
    38 alpha electrons       38 beta electrons
       nuclear repulsion energy       478.6004483981 Hartrees.
 NAtoms=   26 NActive=   26 NUniq=   26 SFac= 1.00D+00 NAtFMM=   60 NAOKFM=F Big=F
 Integral buffers will be    131072 words long.
 Raffenetti 1 integral format.
 Two-electron integral symmetry is turned on.
 ------------------------------------------------------------------------------
 Polarizable Continuum Model (PCM)
 =================================
 Model                : PCM.
 Atomic radii         : SMD-Coulomb.
 Polarization charges : Total charges.
 Charge compensation  : None.
 Solution method      : On-the-fly selection.
 Cavity type          : VdW (van der Waals Surface) (Alpha=1.000).
 Cavity algorithm     : GePol (No added spheres)
                        Default sphere list used, NSphG=   26.
                        Lebedev-Laikov grids with approx.  5.0 points / Ang**2.
                        Smoothing algorithm: York/Karplus (Gamma=1.0000).
                        Polarization charges: spherical gaussians, with
                                              point-specific exponents (IZeta= 3).
                        Self-potential: point-specific (ISelfS= 7).
                        Self-field    : sphere-specific E.n sum rule (ISelfD= 2).
 Solvent              : Ethanol, Eps=  24.852000 Eps(inf)=   1.852593
 ------------------------------------------------------------------------------
 ------------------------------------------------------------------------------
 Atomic radii for non-electrostatic terms: SMD-CDS.
 ------------------------------------------------------------------------------
 Nuclear repulsion after PCM non-electrostatic terms =      478.5987318692 Hartrees.
 One-electron integrals computed using PRISM.
   1 Symmetry operations used in ECPInt.
 ECPInt:  NShTT=   15225 NPrTT=   44224 LenC2=   13758 LenP2D=   30430.
 LDataN:  DoStor=T MaxTD1= 6 Len=  172
 NBasis=   406 RedAO= T EigKep=  3.93D-05  NBF=   406
 NBsUse=   406 1.00D-06 EigRej= -1.00D+00 NBFU=   406
 ExpMin= 9.52D-02 ExpMax= 1.36D+04 ExpMxC= 4.63D+02 IAcc=3 IRadAn=         5 AccDes= 0.00D+00
 Harris functional with IExCor=20419 and IRadAn=       5 diagonalized for initial guess.
 HarFok:  IExCor=20419 AccDes= 0.00D+00 IRadAn=         5 IDoV= 1 UseB2=F ITyADJ=14
 ICtDFT=  3500011 ScaDFX=  1.000000  1.000000  1.000000  1.000000
 FoFCou: FMM=F IPFlag=           0 FMFlag=      100000 FMFlg1=           0
         NFxFlg=           0 DoJE=T BraDBF=F KetDBF=T FulRan=T
         wScrn=  0.000000 ICntrl=       500 IOpCl=  0 I1Cent=   200000004 NGrid=           0
         NMat0=    1 NMatS0=      1 NMatT0=    0 NMatD0=    1 NMtDS0=    0 NMtDT0=    0
 Petite list used in FoFCou.
 Requested convergence on RMS density matrix=1.00D-08 within 128 cycles.
 Requested convergence on MAX density matrix=1.00D-06.
 Requested convergence on             energy=1.00D-06.
 No special actions if energy rises.
 Inv3:  Mode=1 IEnd=    11116875.
 Iteration    1 A*A^-1 deviation from unit magnitude is 3.33D-15 for    460.
 Iteration    1 A*A^-1 deviation from orthogonality  is 2.45D-15 for   1475    214.
 Iteration    1 A^-1*A deviation from unit magnitude is 2.89D-15 for    228.
 Iteration    1 A^-1*A deviation from orthogonality  is 1.84D-15 for   1550    268.
 Error on total polarization charges =  0.06416
 SCF Done:  E(RCAM-B3LYP) =  -390.574831294     A.U. after   13 cycles
            NFock= 13  Conv=0.27D-08     -V/T= 2.0057
 SMD-CDS (non-electrostatic) energy       (kcal/mol) =      -1.08
 (included in total energy above)
 DoSCS=F DFT=T ScalE2(SS,OS)=  1.000000  1.000000
 ExpMin= 9.52D-02 ExpMax= 1.36D+04 ExpMxC= 4.63D+02 IAcc=3 IRadAn=         5 AccDes= 0.00D+00
 HarFok:  IExCor=  205 AccDes= 0.00D+00 IRadAn=         5 IDoV=-2 UseB2=F ITyADJ=14
 ICtDFT= 12500011 ScaDFX=  1.000000  1.000000  1.000000  1.000000
 Range of M.O.s used for correlation:    11   406
 NBasis=   406 NAE=    38 NBE=    38 NFC=    10 NFV=     0
 NROrb=    396 NOA=    28 NOB=    28 NVA=   368 NVB=   368

 **** Warning!!: The largest alpha MO coefficient is  0.36474377D+02

 NEqPCM:  Using non-equilibrium solvation (IEInf=1, Eps=  24.8520, EpsInf=   1.8526)
 Inv3:  Mode=1 IEnd=    11116875.
 Iteration    1 A*A^-1 deviation from unit magnitude is 3.66D-15 for    120.
 Iteration    1 A*A^-1 deviation from orthogonality  is 2.49D-15 for   1342    412.
 Iteration    1 A^-1*A deviation from unit magnitude is 3.44D-15 for    120.
 Iteration    1 A^-1*A deviation from orthogonality  is 1.78D-15 for   1848    506.
 Orbital symmetries:
       Occupied  (A) (A) (A) (A) (A) (A) (A) (A) (A) (A) (A) (A)
                 (A) (A) (A) (A) (A) (A) (A) (A) (A) (A) (A) (A)
                 (A) (A) (A) (A) (A) (A) (A) (A) (A) (A) (A) (A)
                 (A) (A)
       Virtual   (A) (A) (A) (A) (A) (A) (A) (A) (A) (A) (A) (A)
                 (A) (A) (A) (A) (A) (A) (A) (A) (A) (A) (A) (A)
                 (A) (A) (A) (A) (A) (A) (A) (A) (A) (A) (A) (A)
                 (A) (A) (A) (A) (A) (A) (A) (A) (A) (A) (A) (A)
                 (A) (A) (A) (A) (A) (A) (A) (A) (A) (A) (A) (A)
                 (A) (A) (A) (A) (A) (A) (A) (A) (A) (A) (A) (A)
                 (A) (A) (A) (A) (A) (A) (A) (A) (A) (A) (A) (A)
                 (A) (A) (A) (A) (A) (A) (A) (A) (A) (A) (A) (A)
                 (A) (A) (A) (A) (A) (A) (A) (A) (A) (A) (A) (A)
                 (A) (A) (A) (A) (A) (A) (A) (A) (A) (A) (A) (A)
                 (A) (A) (A) (A) (A) (A) (A) (A) (A) (A) (A) (A)
                 (A) (A) (A) (A) (A) (A) (A) (A) (A) (A) (A) (A)
                 (A) (A) (A) (A) (A) (A) (A) (A) (A) (A) (A) (A)
                 (A) (A) (A) (A) (A) (A) (A) (A) (A) (A) (A) (A)
                 (A) (A) (A) (A) (A) (A) (A) (A) (A) (A) (A) (A)
                 (A) (A) (A) (A) (A) (A) (A) (A) (A) (A) (A) (A)
                 (A) (A) (A) (A) (A) (A) (A) (A) (A) (A) (A) (A)
                 (A) (A) (A) (A) (A) (A) (A) (A) (A) (A) (A) (A)
                 (A) (A) (A) (A) (A) (A) (A) (A) (A) (A) (A) (A)
                 (A) (A) (A) (A) (A) (A) (A) (A) (A) (A) (A) (A)
                 (A) (A) (A) (A) (A) (A) (A) (A) (A) (A) (A) (A)
                 (A) (A) (A) (A) (A) (A) (A) (A) (A) (A) (A) (A)
                 (A) (A) (A) (A) (A) (A) (A) (A) (A) (A) (A) (A)
                 (A) (A) (A) (A) (A) (A) (A) (A) (A) (A) (A) (A)
                 (A) (A) (A) (A) (A) (A) (A) (A) (A) (A) (A) (A)
                 (A) (A) (A) (A) (A) (A) (A) (A) (A) (A) (A) (A)
                 (A) (A) (A) (A) (A) (A) (A) (A) (A) (A) (A) (A)
                 (A) (A) (A) (A) (A) (A) (A) (A) (A) (A) (A) (A)
                 (A) (A) (A) (A) (A) (A) (A) (A) (A) (A) (A) (A)
                 (A) (A) (A) (A) (A) (A) (A) (A) (A) (A) (A) (A)
                 (A) (A) (A) (A) (A) (A) (A) (A)
   200 initial guesses have been made.
 Convergence on wavefunction:    0.001000000000000
 Iteration     1 Dimension   200 NMult     0 NNew    200
 CISAX will form   200 AO SS matrices at one time.
 New state      4 was old state      6
 New state      6 was old state      7
 New state      7 was old state     11
 New state      8 was old state      4
 New state      9 was old state      8
 New state     10 was old state     15
 New state     11 was old state      9
 New state     12 was old state     21
 New state     13 was old state     10
 New state     14 was old state     13
 New state     15 was old state     24
 New state     16 was old state     14
 New state     17 was old state     12
 New state     18 was old state     16
 New state     19 was old state     27
 New state     20 was old state     17
 New state     21 was old state     28
 New state     22 was old state     18
 New state     23 was old state     25
 New state     24 was old state     19
 New state     25 was old state     23
 New state     26 was old state     22
 New state     27 was old state     26
 New state     28 was old state     20
 New state     29 was old state     33
 New state     30 was old state     31
 New state     31 was old state     29
 New state     33 was old state     35
 New state     34 was old state     52
 New state     35 was old state     30
 New state     36 was old state     44
 New state     37 was old state     36
 New state     38 was old state     34
 New state     39 was old state     70
 New state     41 was old state     42
 New state     42 was old state     39
 New state     43 was old state     47
 New state     44 was old state     37
 New state     45 was old state     46
 New state     46 was old state     38
 New state     47 was old state     53
 New state     48 was old state     41
 New state     49 was old state     45
 Iteration     2 Dimension   300 NMult   200 NNew    100
 New state      4 was old state      8
 New state      5 was old state      4
 New state      6 was old state      5
 New state      7 was old state      6
 New state      8 was old state      7
 New state     12 was old state     17
 New state     13 was old state     12
 New state     14 was old state     13
 New state     16 was old state     14
 New state     17 was old state     16
 New state     18 was old state     19
 New state     19 was old state     18
 New state     21 was old state     26
 New state     22 was old state     21
 New state     23 was old state     22
 New state     25 was old state     23
 New state     26 was old state     25
 New state     30 was old state     31
 New state     31 was old state     30
 New state     35 was old state     36
 New state     36 was old state     35
 New state     38 was old state     39
 New state     39 was old state     38
 New state     47 was old state     49
 New state     48 was old state     47
 New state     49 was old state     48
 Iteration     3 Dimension   400 NMult   300 NNew    100
 No map to state     50
 Iteration     4 Dimension   494 NMult   400 NNew     94
 Iteration     5 Dimension   512 NMult   494 NNew     18
 Iteration     6 Dimension   516 NMult   512 NNew      4
 Iteration     7 Dimension   518 NMult   516 NNew      2
 ***********************************************************************
 Excited states from <AA,BB:AA,BB> singles matrix:
 ***********************************************************************
 
 Ground to excited state transition densities written to RWF  633
 Ground to excited state transition electric dipole moments (Au):
       state          X           Y           Z        Dip. S.      Osc.
         1        -3.6342     -0.6065     -0.0000     13.5751      1.4764
         2        -0.1890     -0.1691      0.0002      0.0643      0.0098
         3        -0.0005      0.0005     -0.2408      0.0580      0.0092
         4         0.2585     -0.2130     -0.0001      0.1122      0.0179
         5         0.0006      0.0001      0.0255      0.0006      0.0001
         6        -0.0000      0.0003      0.0333      0.0011      0.0002
         7        -0.2426     -0.2844      0.0001      0.1397      0.0239
         8        -0.0005     -0.0005      0.0166      0.0003      0.0000
         9        -0.0001     -0.0001      0.0216      0.0005      0.0001
        10         0.0000      0.0001     -0.0207      0.0004      0.0001
        11        -0.0008     -0.0013     -0.0006      0.0000      0.0000
        12        -0.2977     -0.3651     -0.0001      0.2219      0.0421
        13         0.0011      0.0012     -0.0448      0.0020      0.0004
        14        -0.0000      0.0000     -0.0383      0.0015      0.0003
        15         0.0003      0.0001     -0.0352      0.0012      0.0002
        16         0.0000     -0.0005     -0.0298      0.0009      0.0002
        17         0.0003      0.0001     -0.0554      0.0031      0.0006
        18        -0.0002     -0.0002      0.1386      0.0192      0.0040
        19         0.0009     -0.0003     -0.1054      0.0111      0.0023
        20         0.2200      0.7621     -0.0001      0.6292      0.1334
        21        -0.7946     -0.5897     -0.0003      0.9791      0.2094
        22         0.0003      0.0002      0.0776      0.0060      0.0013
        23         0.1946     -0.0745      0.0002      0.0434      0.0094
        24        -0.1790     -0.1071     -0.0017      0.0435      0.0095
        25         0.0029      0.0015     -0.1381      0.0191      0.0042
        26         0.0004     -0.0003      0.0392      0.0015      0.0003
        27        -0.0010     -0.0003      0.1180      0.0139      0.0031
        28        -0.0000      0.0003      0.0243      0.0006      0.0001
        29        -0.0002     -0.0007      0.2062      0.0425      0.0096
        30         0.0764     -0.1381      0.0002      0.0249      0.0056
        31        -0.0000      0.0011     -0.1216      0.0148      0.0034
        32         0.2315     -0.4992     -0.0004      0.3028      0.0704
        33        -0.0001      0.0005      0.0052      0.0000      0.0000
        34        -0.0003      0.0003      0.1724      0.0297      0.0070
        35         0.0001      0.0006      0.0279      0.0008      0.0002
        36         0.0002      0.0002      0.0596      0.0035      0.0008
        37        -0.0002      0.0006     -0.1208      0.0146      0.0035
        38        -0.0004      0.0009     -0.0274      0.0008      0.0002
        39        -0.1049      0.2539     -0.0006      0.0755      0.0182
        40         0.3736     -0.4810      0.0008      0.3709      0.0899
        41         0.0009     -0.0019     -0.1540      0.0237      0.0058
        42         0.2574     -0.1853     -0.0007      0.1006      0.0245
        43         0.0178      0.0668     -0.0001      0.0048      0.0012
        44         0.0113     -0.0088     -0.2817      0.0796      0.0196
        45        -0.1570      0.1163     -0.0219      0.0386      0.0095
        46        -0.0001      0.0001      0.1700      0.0289      0.0071
        47         0.1149     -0.2096     -0.0015      0.0571      0.0143
        48        -0.0016      0.0027      0.0762      0.0058      0.0015
        49         0.0001      0.0014     -0.0604      0.0036      0.0009
        50        -0.1467     -0.5329     -0.0003      0.3055      0.0776
 Ground to excited state transition velocity dipole moments (Au):
       state          X           Y           Z        Dip. S.      Osc.
         1         0.5882      0.0993      0.0000      0.3559      1.4543
         2         0.0417      0.0392     -0.0000      0.0033      0.0095
         3         0.0001     -0.0001      0.0627      0.0039      0.0110
         4        -0.0622      0.0502      0.0000      0.0064      0.0177
         5        -0.0001     -0.0000     -0.0021      0.0000      0.0000
         6         0.0000     -0.0001     -0.0075      0.0001      0.0002
         7         0.0633      0.0718     -0.0000      0.0092      0.0238
         8         0.0001      0.0001     -0.0045      0.0000      0.0001
         9         0.0000      0.0000     -0.0087      0.0001      0.0002
        10        -0.0000     -0.0000      0.0102      0.0001      0.0003
        11         0.0002      0.0003     -0.0007      0.0000      0.0000
        12         0.0835      0.1025      0.0000      0.0175      0.0410
        13        -0.0003     -0.0003      0.0145      0.0002      0.0005
        14         0.0000     -0.0000      0.0128      0.0002      0.0004
        15        -0.0001     -0.0000      0.0098      0.0001      0.0002
        16        -0.0000      0.0001      0.0100      0.0001      0.0002
        17        -0.0001     -0.0000      0.0136      0.0002      0.0004
        18         0.0001      0.0001     -0.0425      0.0018      0.0038
        19        -0.0003      0.0001      0.0376      0.0014      0.0030
        20        -0.0681     -0.2382      0.0000      0.0614      0.1287
        21         0.2532      0.1903      0.0001      0.1003      0.2084
        22        -0.0001     -0.0001     -0.0243      0.0006      0.0012
        23        -0.0667      0.0231     -0.0001      0.0050      0.0103
        24         0.0612      0.0339      0.0005      0.0049      0.0099
        25        -0.0010     -0.0005      0.0433      0.0019      0.0038
        26        -0.0001      0.0001     -0.0098      0.0001      0.0002
        27         0.0003      0.0001     -0.0426      0.0018      0.0036
        28        -0.0000     -0.0001      0.0017      0.0000      0.0000
        29         0.0001      0.0002     -0.0737      0.0054      0.0107
        30        -0.0225      0.0446     -0.0000      0.0025      0.0049
        31         0.0000     -0.0004      0.0417      0.0017      0.0034
        32        -0.0801      0.1712      0.0001      0.0357      0.0682
        33         0.0000     -0.0002      0.0030      0.0000      0.0000
        34         0.0001     -0.0001     -0.0566      0.0032      0.0061
        35        -0.0000     -0.0002     -0.0064      0.0000      0.0001
        36        -0.0001     -0.0001     -0.0193      0.0004      0.0007
        37         0.0001     -0.0002      0.0395      0.0016      0.0029
        38         0.0002     -0.0003      0.0082      0.0001      0.0001
        39         0.0359     -0.0854      0.0002      0.0086      0.0158
        40        -0.1355      0.1724     -0.0002      0.0481      0.0882
        41        -0.0003      0.0007      0.0452      0.0020      0.0037
        42        -0.0916      0.0656      0.0002      0.0127      0.0231
        43        -0.0085     -0.0238      0.0000      0.0006      0.0012
        44        -0.0038      0.0028      0.0974      0.0095      0.0171
        45         0.0526     -0.0371      0.0076      0.0042      0.0076
        46         0.0000     -0.0001     -0.0572      0.0033      0.0059
        47        -0.0470      0.0801      0.0005      0.0086      0.0153
        48         0.0006     -0.0010     -0.0252      0.0006      0.0011
        49        -0.0000     -0.0005      0.0275      0.0008      0.0013
        50         0.0572      0.2056      0.0002      0.0456      0.0797
 Ground to excited state transition magnetic dipole moments (Au):
       state          X           Y           Z
         1        -0.0001     -0.0003      0.3660
         2         0.0001      0.0002     -0.1041
         3         0.3795     -0.1951      0.0021
         4         0.0008      0.0002     -1.1466
         5        -0.0057     -0.0654     -0.0007
         6         0.0412      0.6487      0.0004
         7        -0.0003     -0.0002      0.0482
         8         0.1890      0.2952      0.0001
         9        -0.0966     -0.0885      0.0002
        10        -0.0067     -0.0520      0.0005
        11         0.0717     -0.4160      0.0003
        12        -0.0006     -0.0008     -0.0853
        13         0.0182     -0.7048      0.0002
        14        -0.1508     -0.6863      0.0005
        15        -1.3950      0.2473     -0.0001
        16         1.2152     -0.2204     -0.0005
        17        -0.1033     -0.4669     -0.0013
        18         0.0874      0.5289      0.0000
        19         0.5894      0.1560     -0.0001
        20         0.0007      0.0010      0.2707
        21         0.0009      0.0002     -0.4847
        22         0.0487      0.0417      0.0003
        23        -0.0004     -0.0005     -0.1474
        24        -0.0015      0.0035      0.4608
        25        -0.2184      0.4896     -0.0057
        26         0.0812      0.2941     -0.0007
        27        -0.2718      1.0586      0.0031
        28         0.2843      0.5005      0.0011
        29         0.1051     -0.4172     -0.0030
        30        -0.0002      0.0020     -1.1658
        31        -0.0327     -0.6049      0.0021
        32         0.0006     -0.0014      0.9724
        33         0.6870     -0.4453      0.0007
        34        -0.2779      0.0777      0.0003
        35         0.6037     -0.2886     -0.0002
        36         0.0961      0.8218      0.0013
        37        -0.5604      0.1980      0.0001
        38         1.0850      1.1002      0.0012
        39        -0.0055     -0.0049      0.6044
        40         0.0034      0.0020      1.3873
        41        -0.9025     -0.4540      0.0060
        42        -0.0024     -0.0060     -0.5651
        43         0.0005      0.0003      0.0314
        44        -0.0411     -0.9825      0.0536
        45        -0.0035     -0.0733     -0.6883
        46         0.4140      0.3208      0.0004
        47         0.0021     -0.0008      0.1041
        48         0.1470      0.2512     -0.0013
        49        -0.2000      0.0729     -0.0047
        50         0.0001      0.0005      0.7778
 Ground to excited state transition velocity quadrupole moments (Au):
       state          XX          YY          ZZ          XY          XZ          YZ
         1        -0.0777      0.0133      0.0116     -0.4382      0.0001      0.0001
         2        -2.4943      0.0015      0.0117     -0.3847     -0.0000     -0.0000
         3         0.0089      0.0001      0.0001      0.0021      0.2125      0.2568
         4        -4.2857      0.0106     -0.0220     -1.0281      0.0000      0.0004
         5        -0.0034      0.0000      0.0000     -0.0007      0.0576     -0.0065
         6         0.0013      0.0002     -0.0004      0.0006     -0.6048     -0.0296
         7         0.0250      0.1125     -0.0121     -0.0158      0.0001     -0.0001
         8         0.0013      0.0002     -0.0000      0.0001     -0.1024      0.0553
         9         0.0004     -0.0003      0.0001      0.0001     -0.0200      0.0486
        10         0.0002      0.0001      0.0002      0.0004     -0.0078     -0.0746
        11         0.0024      0.0011      0.0004     -0.0003      0.3291      0.0715
        12         0.2933      0.3731      0.0047     -0.2263      0.0002     -0.0000
        13        -0.0006     -0.0012     -0.0001      0.0006      0.3978      0.0621
        14        -0.0007      0.0002     -0.0004      0.0003      0.3404      0.0103
        15        -0.0010     -0.0001      0.0001      0.0001     -0.2356     -0.2253
        16        -0.0028      0.0001      0.0001     -0.0006      0.1106      0.3699
        17         0.0007     -0.0001     -0.0001     -0.0008      0.4082     -0.1560
        18         0.0007      0.0001     -0.0002     -0.0001     -0.2723      0.0746
        19         0.0045      0.0006      0.0001      0.0007     -0.0854      0.5174
        20        -1.7224     -0.2687     -0.2049      0.0923     -0.0005      0.0007
        21        -1.8939      0.1432     -0.1251     -0.7235      0.0003      0.0005
        22        -0.0002     -0.0000     -0.0001     -0.0001     -0.2191      0.1015
        23        -0.9552      0.0525     -0.1490     -0.2714      0.0001     -0.0000
        24        -0.7089      0.0630      0.0603      0.5256     -0.0019     -0.0027
        25         0.0065     -0.0001     -0.0009     -0.0062     -0.3274     -0.3149
        26         0.0024     -0.0000     -0.0001     -0.0007     -0.2414     -0.0241
        27         0.0004     -0.0003     -0.0002      0.0033     -0.9597     -0.2601
        28         0.0003     -0.0003     -0.0001      0.0015     -0.3611      0.0276
        29        -0.0035      0.0005      0.0001     -0.0033      0.3112      0.0088
        30        -1.9472      0.3536      0.0290     -1.1969     -0.0018     -0.0002
        31         0.0051     -0.0009      0.0001      0.0013      0.4578      0.0579
        32        -1.3271      0.3452      0.0018      1.5408      0.0010      0.0008
        33         0.0015     -0.0004      0.0001     -0.0003      0.0389      0.1877
        34         0.0030     -0.0005     -0.0001     -0.0003      0.2483     -0.2964
        35         0.0002     -0.0001     -0.0001      0.0004      0.2230      0.2151
        36         0.0000     -0.0003      0.0000      0.0020     -0.3019     -0.1348
        37         0.0021     -0.0002     -0.0000     -0.0019     -0.4892     -0.3249
        38         0.0051     -0.0012     -0.0001     -0.0033     -0.4489      0.2048
        39         0.9668     -0.4219      0.0121     -0.7677      0.0022     -0.0015
        40        -1.5117      0.1608     -0.0170      1.1302     -0.0002      0.0015
        41        -0.0107      0.0007     -0.0002      0.0062      0.0005     -0.4407
        42         1.4351      0.1859      0.0759     -0.0141      0.0037     -0.0015
        43         0.3741      0.0800      0.1081     -0.5049     -0.0001     -0.0006
        44         0.0554     -0.0004     -0.0139      0.0334      0.7063     -0.0914
        45        -0.8834      0.0249      0.1705     -0.4325      0.0523     -0.0074
        46         0.0002     -0.0001     -0.0002      0.0012     -0.1758      0.3738
        47         1.2390     -0.3035      0.1185      0.3584     -0.0058      0.0018
        48        -0.0134      0.0031     -0.0014     -0.0053     -0.7256      0.1609
        49        -0.0064      0.0048     -0.0007     -0.0030     -0.0290      0.0448
        50         2.2837     -1.2358      0.1960      0.9597     -0.0003      0.0002
 <0|del|b> * <b|rxdel|0> + <0|del|b> * <b|delr+rdel|0>
 Rotatory Strengths (R) in cgs (10**-40 erg-esu-cm/Gauss)
       state          XX          YY          ZZ    R(velocity)    E-M Angle
         1        -0.1069      0.0670     -0.2456     -0.0952       90.00
         2         0.0442     -0.0143      0.0127      0.0142       90.00
         3         0.4602      0.1054      0.0180      0.1946       89.58
         4        -0.0734     -0.1102     -0.0151     -0.0662       90.00
         5         0.0063      0.0024     -0.0000      0.0029       90.00
         6        -0.1221      0.0018     -0.0026     -0.0410       90.00
         7        -0.0262     -0.0316     -0.0370     -0.0316       90.00
         8         0.0709      0.0470      0.0609      0.0596       90.00
         9        -0.0040     -0.0028     -0.0051     -0.0040       90.00
        10         0.0133      0.0027      0.0015      0.0058       90.00
        11        -0.3243      0.0406     -0.0378     -0.1071      112.90
        12        -0.1525     -0.0601     -0.1347     -0.1158       90.71
        13         0.4829     -0.0388      0.1479      0.1974       88.66
        14         0.0243      0.0017      0.0015      0.0092       90.00
        15        -0.0111      0.1750      0.1280      0.0973       89.49
        16        -0.0686     -0.0109     -0.0252     -0.0349       90.00
        17        -0.0241      0.0233     -0.0058     -0.0022       90.00
        18         0.0466      0.0053      0.0155      0.0225       90.00
        19         0.0513     -0.3827     -0.0161     -0.1158       90.39
        20        -0.3713     -0.1012     -0.1113     -0.1946       90.22
        21        -0.1689      0.4186      0.2061      0.1519       89.92
        22        -0.0220     -0.0241      0.0151     -0.0103       90.00
        23         0.0252      0.0215      0.0193      0.0220       90.00
        24         0.7695     -0.3140      0.1405      0.1987       89.51
        25        -0.9926      0.5818     -0.1878     -0.1995       90.69
        26         0.0739     -0.0084     -0.0092      0.0188       90.00
        27        -0.0443     -0.1703      0.0079     -0.0689       90.00
        28        -0.0702     -0.0010     -0.0123     -0.0279       90.00
        29         0.3182     -0.0100     -0.0180      0.0967       89.75
        30         0.2984      0.0080      0.0082      0.1048       89.85
        31         0.5373      0.0354      0.0539      0.2089       89.31
        32        -0.0416     -0.1982     -0.0499     -0.0966       90.04
        33         0.0917      0.0441      0.0992      0.0783       87.28
        34         0.0182     -0.0919     -0.0351     -0.0363       90.00
        35         0.1037     -0.0221      0.0011      0.0276       90.00
        36        -0.1420      0.0165     -0.0529     -0.0595       90.00
        37        -0.2175      0.0273      0.0494     -0.0469       90.00
        38        -0.4849      0.2314     -0.0634     -0.1056       90.73
        39         0.5623      0.0138      0.0931      0.2231       89.65
        40        -0.2048     -0.6966      0.0526     -0.2829       90.08
        41         0.2391      0.4331     -0.1406      0.1772       89.66
        42        -0.7355      0.2278     -0.0699     -0.1925       90.27
        43        -0.0261      0.0197     -0.0154     -0.0073       90.00
        44         3.5723      2.3548     -0.9236      1.6678       88.44
        45        -3.6560     -2.3994      0.9413     -1.7047       93.42
        46        -0.1159      0.0682     -0.0073     -0.0183       90.00
        47         0.6146     -0.3011     -0.5081     -0.0649       90.61
        48        -0.7952      0.0932      0.4539     -0.0827       91.03
        49        -0.2485     -0.0398     -0.0158     -0.1013       91.60
        50         0.4001     -0.0098      0.0277      0.1393       89.92
 1/2[<0|r|b>*<b|rxdel|0> + (<0|rxdel|b>*<b|r|0>)*]
 Rotatory Strengths (R) in cgs (10**-40 erg-esu-cm/Gauss)
       state          XX          YY          ZZ     R(length)
         1        -0.1529     -0.1478      0.0100     -0.0969
         2         0.0073      0.0225      0.0137      0.0145
         3         0.1224      0.0677      0.3550      0.1817
         4        -0.1376      0.0274     -0.0545     -0.0549
         5         0.0023      0.0028      0.0125      0.0058
         6         0.0010     -0.1195     -0.0105     -0.0430
         7        -0.0512     -0.0421     -0.0017     -0.0317
         8         0.0715      0.1084     -0.0015      0.0594
         9        -0.0053     -0.0034     -0.0032     -0.0040
        10         0.0001      0.0034      0.0078      0.0038
        11         0.0430     -0.3688      0.0001     -0.1086
        12        -0.1285     -0.2136     -0.0078     -0.1167
        13        -0.0146      0.6053      0.0063      0.1990
        14        -0.0019      0.0092      0.0147      0.0073
        15         0.3186     -0.0129     -0.0027      0.1010
        16        -0.0249     -0.0731     -0.0097     -0.0359
        17         0.0219      0.0178     -0.0497     -0.0034
        18         0.0103      0.0636     -0.0043      0.0232
        19        -0.3671      0.0313     -0.0042     -0.1133
        20        -0.1099     -0.5125      0.0246     -0.1993
        21         0.5042      0.0795     -0.1135      0.1567
        22        -0.0087     -0.0049     -0.0179     -0.0105
        23         0.0601     -0.0266      0.0255      0.0197
        24        -0.1868      0.2621      0.5399      0.2051
        25         0.4486     -0.5273     -0.5544     -0.2110
        26        -0.0232      0.0646      0.0193      0.0202
        27        -0.1890      0.2404     -0.2569     -0.0685
        28         0.0018     -0.0900     -0.0186     -0.0356
        29         0.0129     -0.1934      0.4423      0.0872
        30         0.0123      0.1929      0.1710      0.1254
        31        -0.0002      0.4503      0.1824      0.2108
        32        -0.1022     -0.4899      0.2877     -0.1015
        33         0.0697      0.1686     -0.0027      0.0785
        34        -0.0553     -0.0185     -0.0412     -0.0383
        35        -0.0376      0.1173      0.0045      0.0281
        36        -0.0129     -0.1119     -0.0536     -0.0595
        37        -0.0604     -0.0876      0.0101     -0.0460
        38         0.3201     -0.7008      0.0226     -0.1194
        39        -0.4092      0.8885      0.2548      0.2447
        40        -0.8855      0.6790     -0.7510     -0.3192
        41         0.5974     -0.6014      0.6496      0.2152
        42         0.4278     -0.7909     -0.2787     -0.2139
        43        -0.0063     -0.0163      0.0029     -0.0066
        44         0.3283     -6.1474     10.6786      1.6198
        45        -0.3893      6.0278    -10.6405     -1.6673
        46         0.0181     -0.0324     -0.0468     -0.0204
        47        -0.1698     -0.1152      0.1083     -0.0589
        48         0.1686     -0.4863      0.0716     -0.0820
        49         0.0087     -0.0725     -0.2006     -0.0881
        50         0.0144      0.1826      0.1739      0.1236
  1/2[<0|del|b>*<b|r|0> + (<0|r|b>*<b|del|0>)*] (Au)
       state          X           Y           Z        Dip. S.   Osc.(frdel)
         1        -2.1377     -0.0602     -0.0000      2.1979      1.4653
         2        -0.0079     -0.0066     -0.0000      0.0145      0.0097
         3        -0.0000     -0.0000     -0.0151      0.0151      0.0101
         4        -0.0161     -0.0107     -0.0000      0.0268      0.0178
         5        -0.0000     -0.0000     -0.0001      0.0001      0.0000
         6        -0.0000     -0.0000     -0.0003      0.0003      0.0002
         7        -0.0153     -0.0204     -0.0000      0.0358      0.0238
         8        -0.0000     -0.0000     -0.0001      0.0001      0.0001
         9        -0.0000     -0.0000     -0.0002      0.0002      0.0001
        10        -0.0000     -0.0000     -0.0002      0.0002      0.0001
        11        -0.0000     -0.0000      0.0000      0.0000      0.0000
        12        -0.0249     -0.0374     -0.0000      0.0623      0.0415
        13        -0.0000     -0.0000     -0.0007      0.0007      0.0004
        14        -0.0000     -0.0000     -0.0005      0.0005      0.0003
        15        -0.0000     -0.0000     -0.0003      0.0003      0.0002
        16        -0.0000     -0.0000     -0.0003      0.0003      0.0002
        17        -0.0000     -0.0000     -0.0008      0.0008      0.0005
        18        -0.0000     -0.0000     -0.0059      0.0059      0.0039
        19        -0.0000     -0.0000     -0.0040      0.0040      0.0026
        20        -0.0150     -0.1816     -0.0000      0.1966      0.1310
        21        -0.2012     -0.1122     -0.0000      0.3134      0.2089
        22        -0.0000     -0.0000     -0.0019      0.0019      0.0013
        23        -0.0130     -0.0017     -0.0000      0.0147      0.0098
        24        -0.0109     -0.0036     -0.0000      0.0146      0.0097
        25        -0.0000     -0.0000     -0.0060      0.0060      0.0040
        26        -0.0000     -0.0000     -0.0004      0.0004      0.0003
        27        -0.0000     -0.0000     -0.0050      0.0050      0.0033
        28         0.0000     -0.0000      0.0000     -0.0000     -0.0000
        29        -0.0000     -0.0000     -0.0152      0.0152      0.0101
        30        -0.0017     -0.0062     -0.0000      0.0079      0.0053
        31        -0.0000     -0.0000     -0.0051      0.0051      0.0034
        32        -0.0185     -0.0854     -0.0000      0.1040      0.0693
        33        -0.0000     -0.0000      0.0000     -0.0000     -0.0000
        34        -0.0000     -0.0000     -0.0098      0.0098      0.0065
        35        -0.0000     -0.0000     -0.0002      0.0002      0.0001
        36        -0.0000     -0.0000     -0.0012      0.0012      0.0008
        37        -0.0000     -0.0000     -0.0048      0.0048      0.0032
        38        -0.0000     -0.0000     -0.0002      0.0002      0.0002
        39        -0.0038     -0.0217     -0.0000      0.0254      0.0170
        40        -0.0506     -0.0829     -0.0000      0.1335      0.0890
        41        -0.0000     -0.0000     -0.0070      0.0070      0.0046
        42        -0.0236     -0.0122     -0.0000      0.0357      0.0238
        43        -0.0002     -0.0016     -0.0000      0.0017      0.0012
        44        -0.0000     -0.0000     -0.0274      0.0275      0.0183
        45        -0.0083     -0.0043     -0.0002      0.0127      0.0085
        46        -0.0000     -0.0000     -0.0097      0.0097      0.0065
        47        -0.0054     -0.0168     -0.0000      0.0222      0.0148
        48        -0.0000     -0.0000     -0.0019      0.0019      0.0013
        49        -0.0000     -0.0000     -0.0017      0.0017      0.0011
        50        -0.0084     -0.1096     -0.0000      0.1180      0.0786

 Excitation energies and oscillator strengths:
 
 Excited State   1:      Singlet-A      4.4391 eV  279.30 nm  f=1.4764  <S**2>=0.000
      38 -> 39         0.70352
 This state for optimization and/or second-order correction.
 Total Energy, E(TD-HF/TD-DFT) =  -390.411697794    
 Copying the excited state density for this state as the 1-particle RhoCI density.
 
 Excited State   2:      Singlet-A      6.2327 eV  198.92 nm  f=0.0098  <S**2>=0.000
      37 -> 39         0.67159
      38 -> 41        -0.17820
 
 Excited State   3:      Singlet-A      6.4933 eV  190.94 nm  f=0.0092  <S**2>=0.000
      37 -> 42         0.12511
      38 -> 40         0.67328
 
 Excited State   4:      Singlet-A      6.5258 eV  189.99 nm  f=0.0179  <S**2>=0.000
      37 -> 39         0.18650
      38 -> 41         0.67144
 
 Excited State   5:      Singlet-A      6.7513 eV  183.65 nm  f=0.0001  <S**2>=0.000
      38 -> 42        -0.13090
      38 -> 43         0.61554
      38 -> 45        -0.25582
 
 Excited State   6:      Singlet-A      6.7754 eV  182.99 nm  f=0.0002  <S**2>=0.000
      37 -> 40         0.17342
      38 -> 42         0.64169
      38 -> 43         0.10769
 
 Excited State   7:      Singlet-A      6.9919 eV  177.33 nm  f=0.0239  <S**2>=0.000
      35 -> 39        -0.16718
      38 -> 44         0.64825
      38 -> 45        -0.18404
 
 Excited State   8:      Singlet-A      7.0263 eV  176.46 nm  f=0.0000  <S**2>=0.000
      32 -> 39         0.11841
      34 -> 41        -0.12127
      36 -> 39         0.67233
 
 Excited State   9:      Singlet-A      7.4897 eV  165.54 nm  f=0.0001  <S**2>=0.000
      34 -> 39         0.48514
      36 -> 41        -0.14615
      38 -> 43        -0.15897
      38 -> 44        -0.10351
      38 -> 45        -0.36489
      38 -> 47        -0.13930
 
 Excited State  10:      Singlet-A      7.5310 eV  164.63 nm  f=0.0001  <S**2>=0.000
      34 -> 39         0.43065
      36 -> 41        -0.12262
      37 -> 42         0.11483
      38 -> 43         0.18695
      38 -> 44         0.12187
      38 -> 45         0.42951
      38 -> 47         0.10456
 
 Excited State  11:      Singlet-A      7.7176 eV  160.65 nm  f=0.0000  <S**2>=0.000
      37 -> 43         0.15365
      37 -> 45        -0.11981
      38 -> 45        -0.13221
      38 -> 46         0.49067
      38 -> 47         0.35339
      38 -> 49         0.18230
 
 Excited State  12:      Singlet-A      7.7353 eV  160.28 nm  f=0.0421  <S**2>=0.000
      35 -> 39         0.65784
      37 -> 41         0.18985
      38 -> 44         0.12829
 
 Excited State  13:      Singlet-A      7.8267 eV  158.41 nm  f=0.0004  <S**2>=0.000
      30 -> 39        -0.15646
      31 -> 39         0.11410
      31 -> 41         0.10628
      32 -> 39         0.28559
      33 -> 39         0.56605
 
 Excited State  14:      Singlet-A      7.9626 eV  155.71 nm  f=0.0003  <S**2>=0.000
      38 -> 46        -0.25796
      38 -> 47         0.45394
      38 -> 48         0.25352
      38 -> 49        -0.29240
 
 Excited State  15:      Singlet-A      8.1420 eV  152.28 nm  f=0.0002  <S**2>=0.000
      30 -> 39        -0.24417
      32 -> 39         0.39583
      33 -> 39        -0.26693
      34 -> 41         0.17248
      38 -> 46         0.15352
      38 -> 47        -0.16965
      38 -> 48         0.24588
 
 Excited State  16:      Singlet-A      8.1580 eV  151.98 nm  f=0.0002  <S**2>=0.000
      30 -> 39         0.14305
      32 -> 39        -0.23197
      33 -> 39         0.16958
      34 -> 41        -0.10088
      37 -> 46        -0.13269
      38 -> 46         0.21044
      38 -> 47        -0.17498
      38 -> 48         0.47243
      38 -> 49        -0.16162
 
 Excited State  17:      Singlet-A      8.3207 eV  149.01 nm  f=0.0006  <S**2>=0.000
      37 -> 45        -0.10898
      37 -> 47        -0.15266
      38 -> 46        -0.24627
      38 -> 48         0.27908
      38 -> 49         0.53984
 
 Excited State  18:      Singlet-A      8.5196 eV  145.53 nm  f=0.0040  <S**2>=0.000
      28 -> 39         0.12158
      31 -> 39         0.58778
      32 -> 39        -0.10027
      33 -> 41         0.22842
      36 -> 41        -0.11358
 
 Excited State  19:      Singlet-A      8.6183 eV  143.86 nm  f=0.0023  <S**2>=0.000
      35 -> 42         0.10220
      37 -> 40         0.51636
      37 -> 42         0.28538
      37 -> 43        -0.11046
      37 -> 45        -0.11712
      38 -> 42        -0.14095
      38 -> 46         0.11763
      38 -> 53        -0.14838
 
 Excited State  20:      Singlet-A      8.6568 eV  143.22 nm  f=0.1334  <S**2>=0.000
      35 -> 39         0.10473
      37 -> 41        -0.41113
      38 -> 50         0.47828
      38 -> 52        -0.24051
 
 Excited State  21:      Singlet-A      8.7307 eV  142.01 nm  f=0.2094  <S**2>=0.000
      35 -> 39        -0.12441
      37 -> 41         0.48442
      37 -> 44         0.10888
      38 -> 50         0.38937
      38 -> 51        -0.14930
      38 -> 52        -0.14024
 
 Excited State  22:      Singlet-A      8.7906 eV  141.04 nm  f=0.0013  <S**2>=0.000
      30 -> 39         0.56136
      32 -> 39         0.31685
      32 -> 41        -0.12262
      33 -> 41         0.11453
 
 Excited State  23:      Singlet-A      8.8244 eV  140.50 nm  f=0.0094  <S**2>=0.000
      37 -> 50        -0.10049
      37 -> 51        -0.15329
      38 -> 50         0.12327
      38 -> 51         0.64807
 
 Excited State  24:      Singlet-A      8.9411 eV  138.67 nm  f=0.0095  <S**2>=0.000
      35 -> 41        -0.13554
      37 -> 44        -0.39009
      37 -> 45         0.11061
      37 -> 51        -0.10322
      38 -> 50         0.21154
      38 -> 52         0.47583
 
 Excited State  25:      Singlet-A      8.9716 eV  138.20 nm  f=0.0042  <S**2>=0.000
      37 -> 40         0.26896
      37 -> 42        -0.17854
      37 -> 47        -0.11531
      37 -> 49        -0.17008
      38 -> 48        -0.11023
      38 -> 53         0.47717
      38 -> 54        -0.20565
 
 Excited State  26:      Singlet-A      9.0431 eV  137.10 nm  f=0.0003  <S**2>=0.000
      37 -> 42         0.13895
      37 -> 43         0.56665
      37 -> 45        -0.21379
      38 -> 46        -0.11590
      38 -> 47        -0.12529
      38 -> 49        -0.10156
 
 Excited State  27:      Singlet-A      9.1342 eV  135.74 nm  f=0.0031  <S**2>=0.000
      35 -> 40        -0.14830
      37 -> 40         0.22128
      37 -> 42        -0.28235
      37 -> 46         0.10123
      37 -> 48        -0.10616
      37 -> 49         0.10720
      38 -> 54         0.47232
      38 -> 55        -0.21106
 
 Excited State  28:      Singlet-A      9.1791 eV  135.07 nm  f=0.0001  <S**2>=0.000
      37 -> 40        -0.10108
      37 -> 42         0.39402
      38 -> 40        -0.13667
      38 -> 53         0.35748
      38 -> 54         0.24542
      38 -> 55        -0.13672
 
 Excited State  29:      Singlet-A      9.2157 eV  134.54 nm  f=0.0096  <S**2>=0.000
      28 -> 39         0.57513
      28 -> 41         0.12081
      30 -> 41        -0.11008
      31 -> 39        -0.18134
      32 -> 41        -0.10954
      34 -> 39        -0.12611
      36 -> 41        -0.16812
 
 Excited State  30:      Singlet-A      9.2288 eV  134.34 nm  f=0.0056  <S**2>=0.000
      35 -> 41         0.21511
      37 -> 41        -0.12652
      37 -> 44         0.45376
      37 -> 45        -0.12883
      38 -> 50         0.10581
      38 -> 52         0.40306
 
 Excited State  31:      Singlet-A      9.3743 eV  132.26 nm  f=0.0034  <S**2>=0.000
      37 -> 45        -0.11013
      37 -> 49        -0.12650
      38 -> 54         0.27708
      38 -> 55         0.54279
      38 -> 59        -0.10343
 
 Excited State  32:      Singlet-A      9.4968 eV  130.55 nm  f=0.0704  <S**2>=0.000
      29 -> 39         0.66509
      29 -> 41        -0.21450
 
 Excited State  33:      Singlet-A      9.5370 eV  130.00 nm  f=0.0000  <S**2>=0.000
      26 -> 39         0.47285
      28 -> 39        -0.17837
      31 -> 41         0.15433
      32 -> 39         0.13799
      34 -> 44         0.16583
      36 -> 41        -0.27378
      38 -> 57         0.12293
 
 Excited State  34:      Singlet-A      9.6077 eV  129.05 nm  f=0.0070  <S**2>=0.000
      26 -> 39        -0.13118
      37 -> 45         0.10745
      37 -> 54        -0.15045
      37 -> 57         0.11060
      38 -> 55         0.12481
      38 -> 57         0.57689
 
 Excited State  35:      Singlet-A      9.6933 eV  127.91 nm  f=0.0002  <S**2>=0.000
      26 -> 39         0.28651
      28 -> 39         0.14228
      30 -> 41        -0.13099
      32 -> 41         0.15148
      34 -> 39         0.14264
      34 -> 44        -0.18553
      36 -> 41         0.48043
 
 Excited State  36:      Singlet-A      9.7507 eV  127.15 nm  f=0.0008  <S**2>=0.000
      34 -> 41        -0.16125
      35 -> 40        -0.10624
      35 -> 43         0.19491
      36 -> 44         0.17237
      37 -> 43         0.12724
      37 -> 45         0.24820
      37 -> 46         0.18196
      37 -> 47         0.14591
      37 -> 48        -0.12409
      38 -> 54        -0.15233
      38 -> 57        -0.15039
      38 -> 58        -0.16345
      38 -> 59        -0.24065
      38 -> 61         0.10586
 
 Excited State  37:      Singlet-A      9.7895 eV  126.65 nm  f=0.0035  <S**2>=0.000
      26 -> 39         0.10417
      34 -> 41         0.15114
      35 -> 42         0.10177
      36 -> 44        -0.16920
      37 -> 43         0.18844
      37 -> 44         0.12759
      37 -> 45         0.45038
      37 -> 46        -0.13269
      37 -> 47        -0.14220
 
 Excited State  38:      Singlet-A      9.7916 eV  126.62 nm  f=0.0002  <S**2>=0.000
      23 -> 39        -0.11762
      28 -> 41        -0.10539
      32 -> 39         0.10979
      34 -> 41        -0.29865
      36 -> 44         0.33357
      37 -> 45         0.11817
      37 -> 46        -0.14879
      37 -> 47        -0.15617
      37 -> 48         0.10789
      38 -> 58         0.22209
      38 -> 59         0.13052
 
 Excited State  39:      Singlet-A      9.8325 eV  126.10 nm  f=0.0182  <S**2>=0.000
      34 -> 40         0.11542
      34 -> 42        -0.11457
      36 -> 40         0.25109
      37 -> 56        -0.16098
      38 -> 56         0.58048
 
 Excited State  40:      Singlet-A      9.8942 eV  125.31 nm  f=0.0899  <S**2>=0.000
      32 -> 40        -0.10912
      34 -> 40         0.16246
      34 -> 42        -0.25388
      36 -> 40         0.48325
      36 -> 42        -0.13519
      38 -> 56        -0.30936
 
 Excited State  41:      Singlet-A      9.9429 eV  124.70 nm  f=0.0058  <S**2>=0.000
      35 -> 40        -0.20793
      35 -> 42        -0.11757
      35 -> 43         0.21885
      37 -> 46         0.24868
      37 -> 49         0.15943
      37 -> 53         0.16463
      38 -> 55         0.15695
      38 -> 58         0.27781
      38 -> 59         0.28397
      38 -> 61        -0.12456
 
 Excited State  42:      Singlet-A      9.9590 eV  124.49 nm  f=0.0245  <S**2>=0.000
      25 -> 39        -0.18548
      27 -> 39         0.62219
      27 -> 41         0.15457
      35 -> 41         0.12767
      38 -> 60        -0.13947
 
 Excited State  43:      Singlet-A     10.0111 eV  123.85 nm  f=0.0012  <S**2>=0.000
      32 -> 42        -0.11260
      34 -> 40        -0.40622
      34 -> 42        -0.22972
      34 -> 43        -0.12190
      36 -> 40         0.17093
      36 -> 42         0.41674
 
 Excited State  44:      Singlet-A     10.0525 eV  123.34 nm  f=0.0196  <S**2>=0.000
      37 -> 55        -0.15044
      37 -> 58         0.13251
      38 -> 58         0.49127
      38 -> 59        -0.33917
      38 -> 61         0.12109
      38 -> 62        -0.13464
 
 Excited State  45:      Singlet-A     10.0586 eV  123.26 nm  f=0.0095  <S**2>=0.000
      35 -> 41         0.44883
      37 -> 44        -0.21980
      37 -> 50        -0.10354
      37 -> 52         0.14568
      38 -> 60         0.31563
      38 -> 63         0.23969
 
 Excited State  46:      Singlet-A     10.0955 eV  122.81 nm  f=0.0071  <S**2>=0.000
      35 -> 40         0.16747
      35 -> 42         0.10128
      35 -> 45        -0.16506
      37 -> 42        -0.13861
      37 -> 47         0.44313
      37 -> 48         0.16323
      37 -> 49        -0.16837
      38 -> 48         0.11017
      38 -> 59         0.18113
      38 -> 61        -0.14709
 
 Excited State  47:      Singlet-A     10.2379 eV  121.10 nm  f=0.0143  <S**2>=0.000
      27 -> 39         0.17847
      35 -> 41        -0.36862
      37 -> 60         0.13891
      38 -> 60         0.49392
 
 Excited State  48:      Singlet-A     10.2557 eV  120.89 nm  f=0.0015  <S**2>=0.000
      37 -> 58         0.10275
      38 -> 55        -0.12055
      38 -> 58         0.11432
      38 -> 62         0.61330
 
 Excited State  49:      Singlet-A     10.3445 eV  119.86 nm  f=0.0009  <S**2>=0.000
      35 -> 40         0.37720
      35 -> 42         0.10218
      35 -> 45        -0.13470
      37 -> 46         0.19739
      37 -> 47        -0.15039
      37 -> 49         0.33266
      38 -> 59        -0.16032
      38 -> 61        -0.15304
 
 Excited State  50:      Singlet-A     10.3640 eV  119.63 nm  f=0.0776  <S**2>=0.000
      32 -> 40        -0.17158
      33 -> 40         0.10520
      34 -> 42        -0.27348
      36 -> 40        -0.17128
      36 -> 42        -0.15860
      36 -> 43         0.47948
 SavETr:  write IOETrn=   770 NScale= 10 NData=  16 NLR=1 NState=   50 LETran=     910.

 **********************************************************************

            Population analysis using the SCF Density.

 **********************************************************************

 Orbital symmetries:
       Occupied  (A) (A) (A) (A) (A) (A) (A) (A) (A) (A) (A) (A)
                 (A) (A) (A) (A) (A) (A) (A) (A) (A) (A) (A) (A)
                 (A) (A) (A) (A) (A) (A) (A) (A) (A) (A) (A) (A)
                 (A) (A)
       Virtual   (A) (A) (A) (A) (A) (A) (A) (A) (A) (A) (A) (A)
                 (A) (A) (A) (A) (A) (A) (A) (A) (A) (A) (A) (A)
                 (A) (A) (A) (A) (A) (A) (A) (A) (A) (A) (A) (A)
                 (A) (A) (A) (A) (A) (A) (A) (A) (A) (A) (A) (A)
                 (A) (A) (A) (A) (A) (A) (A) (A) (A) (A) (A) (A)
                 (A) (A) (A) (A) (A) (A) (A) (A) (A) (A) (A) (A)
                 (A) (A) (A) (A) (A) (A) (A) (A) (A) (A) (A) (A)
                 (A) (A) (A) (A) (A) (A) (A) (A) (A) (A) (A) (A)
                 (A) (A) (A) (A) (A) (A) (A) (A) (A) (A) (A) (A)
                 (A) (A) (A) (A) (A) (A) (A) (A) (A) (A) (A) (A)
                 (A) (A) (A) (A) (A) (A) (A) (A) (A) (A) (A) (A)
                 (A) (A) (A) (A) (A) (A) (A) (A) (A) (A) (A) (A)
                 (A) (A) (A) (A) (A) (A) (A) (A) (A) (A) (A) (A)
                 (A) (A) (A) (A) (A) (A) (A) (A) (A) (A) (A) (A)
                 (A) (A) (A) (A) (A) (A) (A) (A) (A) (A) (A) (A)
                 (A) (A) (A) (A) (A) (A) (A) (A) (A) (A) (A) (A)
                 (A) (A) (A) (A) (A) (A) (A) (A) (A) (A) (A) (A)
                 (A) (A) (A) (A) (A) (A) (A) (A) (A) (A) (A) (A)
                 (A) (A) (A) (A) (A) (A) (A) (A) (A) (A) (A) (A)
                 (A) (A) (A) (A) (A) (A) (A) (A) (A) (A) (A) (A)
                 (A) (A) (A) (A) (A) (A) (A) (A) (A) (A) (A) (A)
                 (A) (A) (A) (A) (A) (A) (A) (A) (A) (A) (A) (A)
                 (A) (A) (A) (A) (A) (A) (A) (A) (A) (A) (A) (A)
                 (A) (A) (A) (A) (A) (A) (A) (A) (A) (A) (A) (A)
                 (A) (A) (A) (A) (A) (A) (A) (A) (A) (A) (A) (A)
                 (A) (A) (A) (A) (A) (A) (A) (A) (A) (A) (A) (A)
                 (A) (A) (A) (A) (A) (A) (A) (A) (A) (A) (A) (A)
                 (A) (A) (A) (A) (A) (A) (A) (A) (A) (A) (A) (A)
                 (A) (A) (A) (A) (A) (A) (A) (A) (A) (A) (A) (A)
                 (A) (A) (A) (A) (A) (A) (A) (A) (A) (A) (A) (A)
                 (A) (A) (A) (A) (A) (A) (A) (A)
 The electronic state is 1-A.
 Alpha  occ. eigenvalues --  -10.25327 -10.24939 -10.24072 -10.24009 -10.23931
 Alpha  occ. eigenvalues --  -10.23306 -10.23079 -10.22990 -10.22920 -10.22853
 Alpha  occ. eigenvalues --   -0.90913  -0.88918  -0.83967  -0.79700  -0.76491
 Alpha  occ. eigenvalues --   -0.75683  -0.72549  -0.64137  -0.59837  -0.57803
 Alpha  occ. eigenvalues --   -0.54474  -0.52380  -0.50375  -0.49478  -0.48476
 Alpha  occ. eigenvalues --   -0.47649  -0.46159  -0.44284  -0.44170  -0.43459
 Alpha  occ. eigenvalues --   -0.43082  -0.42283  -0.41511  -0.39723  -0.38565
 Alpha  occ. eigenvalues --   -0.38444  -0.32156  -0.24602
 Alpha virt. eigenvalues --    0.00439   0.08351   0.08927   0.09163   0.10451
 Alpha virt. eigenvalues --    0.12218   0.12221   0.13099   0.13937   0.14930
 Alpha virt. eigenvalues --    0.15475   0.16287   0.16375   0.17745   0.18382
 Alpha virt. eigenvalues --    0.18744   0.19894   0.20241   0.20438   0.20965
 Alpha virt. eigenvalues --    0.22328   0.22779   0.23213   0.23809   0.24539
 Alpha virt. eigenvalues --    0.25594   0.26538   0.27257   0.28481   0.29245
 Alpha virt. eigenvalues --    0.29588   0.30478   0.31724   0.33990   0.34369
 Alpha virt. eigenvalues --    0.35052   0.35430   0.35659   0.36392   0.38546
 Alpha virt. eigenvalues --    0.38958   0.40716   0.41079   0.42307   0.42863
 Alpha virt. eigenvalues --    0.43076   0.44095   0.44650   0.44922   0.46677
 Alpha virt. eigenvalues --    0.47597   0.47742   0.48378   0.48942   0.49657
 Alpha virt. eigenvalues --    0.50750   0.51723   0.52451   0.53207   0.53227
 Alpha virt. eigenvalues --    0.54142   0.54360   0.54380   0.54721   0.55834
 Alpha virt. eigenvalues --    0.56584   0.57546   0.58810   0.60266   0.62802
 Alpha virt. eigenvalues --    0.64154   0.65108   0.65658   0.66057   0.67042
 Alpha virt. eigenvalues --    0.68612   0.69513   0.70278   0.70831   0.72071
 Alpha virt. eigenvalues --    0.73288   0.73909   0.74109   0.75253   0.76633
 Alpha virt. eigenvalues --    0.78441   0.80657   0.80794   0.82401   0.85350
 Alpha virt. eigenvalues --    0.86043   0.89940   0.89969   0.91448   0.94402
 Alpha virt. eigenvalues --    0.94635   0.98510   0.99680   1.00175   1.02084
 Alpha virt. eigenvalues --    1.02238   1.04377   1.04647   1.04927   1.05831
 Alpha virt. eigenvalues --    1.07229   1.10994   1.11060   1.12762   1.13150
 Alpha virt. eigenvalues --    1.14941   1.16198   1.18003   1.19144   1.21347
 Alpha virt. eigenvalues --    1.21893   1.23715   1.25336   1.27694   1.28835
 Alpha virt. eigenvalues --    1.29204   1.30540   1.32234   1.34125   1.37902
 Alpha virt. eigenvalues --    1.39688   1.40825   1.41312   1.42421   1.47200
 Alpha virt. eigenvalues --    1.49565   1.49712   1.52910   1.54091   1.55420
 Alpha virt. eigenvalues --    1.56474   1.57769   1.58230   1.59331   1.59767
 Alpha virt. eigenvalues --    1.60861   1.61688   1.61730   1.62111   1.63642
 Alpha virt. eigenvalues --    1.64058   1.64583   1.65166   1.65324   1.65680
 Alpha virt. eigenvalues --    1.65773   1.66323   1.69072   1.69426   1.71592
 Alpha virt. eigenvalues --    1.72349   1.73637   1.76904   1.80761   1.80900
 Alpha virt. eigenvalues --    1.81774   1.82925   1.85532   1.88137   1.89201
 Alpha virt. eigenvalues --    1.92868   1.96870   1.97744   1.98637   1.99556
 Alpha virt. eigenvalues --    2.01123   2.04098   2.04467   2.05723   2.07496
 Alpha virt. eigenvalues --    2.08239   2.08401   2.09829   2.12945   2.14119
 Alpha virt. eigenvalues --    2.15301   2.18067   2.19767   2.22185   2.24166
 Alpha virt. eigenvalues --    2.25751   2.26106   2.28790   2.29144   2.32214
 Alpha virt. eigenvalues --    2.34169   2.34834   2.36510   2.39183   2.40852
 Alpha virt. eigenvalues --    2.41146   2.42585   2.42865   2.43813   2.44513
 Alpha virt. eigenvalues --    2.44859   2.46974   2.47972   2.51108   2.51352
 Alpha virt. eigenvalues --    2.54203   2.56150   2.56373   2.58725   2.59209
 Alpha virt. eigenvalues --    2.60033   2.60842   2.62234   2.63543   2.64429
 Alpha virt. eigenvalues --    2.65533   2.65847   2.66581   2.67287   2.68326
 Alpha virt. eigenvalues --    2.71014   2.71106   2.76605   2.77532   2.78881
 Alpha virt. eigenvalues --    2.79501   2.81569   2.82237   2.83323   2.85887
 Alpha virt. eigenvalues --    2.86259   2.87257   2.89167   2.91340   2.93325
 Alpha virt. eigenvalues --    2.94949   2.95327   2.95439   2.97667   2.98446
 Alpha virt. eigenvalues --    3.01416   3.02316   3.02546   3.04065   3.06690
 Alpha virt. eigenvalues --    3.07028   3.08382   3.08893   3.10828   3.11424
 Alpha virt. eigenvalues --    3.11823   3.13704   3.16402   3.18113   3.18253
 Alpha virt. eigenvalues --    3.18556   3.20046   3.20686   3.20998   3.22803
 Alpha virt. eigenvalues --    3.24061   3.24536   3.25130   3.25748   3.28087
 Alpha virt. eigenvalues --    3.29384   3.31165   3.31178   3.33398   3.33900
 Alpha virt. eigenvalues --    3.36525   3.36612   3.37071   3.38411   3.39661
 Alpha virt. eigenvalues --    3.40014   3.40573   3.41597   3.41837   3.42428
 Alpha virt. eigenvalues --    3.42791   3.43726   3.45578   3.47064   3.51130
 Alpha virt. eigenvalues --    3.51494   3.52669   3.53535   3.57110   3.57833
 Alpha virt. eigenvalues --    3.61332   3.62338   3.63062   3.64227   3.66985
 Alpha virt. eigenvalues --    3.67389   3.71764   3.73873   3.74041   3.75385
 Alpha virt. eigenvalues --    3.75731   3.79767   3.81466   3.84506   3.85295
 Alpha virt. eigenvalues --    3.88702   3.89352   3.89959   3.94311   3.94868
 Alpha virt. eigenvalues --    3.98242   3.99947   4.03359   4.06081   4.06408
 Alpha virt. eigenvalues --    4.06437   4.09818   4.11438   4.12709   4.15155
 Alpha virt. eigenvalues --    4.19962   4.26366   4.30814   4.31236   4.31818
 Alpha virt. eigenvalues --    4.35524   4.37797   4.40386   4.43632   4.44576
 Alpha virt. eigenvalues --    4.45624   4.46042   4.47499   4.48548   4.52242
 Alpha virt. eigenvalues --    4.54543   4.55736   4.58363   4.61739   4.64171
 Alpha virt. eigenvalues --    4.70039   4.70376   4.72903   4.77295   4.78998
 Alpha virt. eigenvalues --    4.83347   4.94953   4.95676   4.99845   5.02465
 Alpha virt. eigenvalues --    5.10432   5.14364   5.17705   5.24712   5.32799
 Alpha virt. eigenvalues --    5.35850   5.56065   5.62428  22.28850  22.36805
 Alpha virt. eigenvalues --   22.43349  22.48148  22.53094  22.55271  22.71293
 Alpha virt. eigenvalues --   22.84255  23.07765  23.15750
          Condensed to atoms (all electrons):
               1          2          3          4          5          6
     1  C    4.999205   0.277135  -0.069207   0.011742  -0.000782   0.000050
     2  C    0.277135   5.157525   0.633386  -0.071384  -0.004528  -0.001045
     3  C   -0.069207   0.633386   5.149651   0.315473  -0.077813   0.003265
     4  C    0.011742  -0.071384   0.315473   5.050542   0.556389  -0.044705
     5  C   -0.000782  -0.004528  -0.077813   0.556389   5.185509   0.291944
     6  C    0.000050  -0.001045   0.003265  -0.044705   0.291944   5.184202
     7  C    0.000000  -0.000002  -0.001025   0.000519  -0.123860   0.598360
     8  C    0.000000   0.000000   0.000060  -0.000977   0.012168  -0.021489
     9  C   -0.054854   0.252511  -0.058645  -0.008859   0.006031  -0.000373
    10  C   -0.000003   0.000028  -0.003065   0.011441  -0.071115   0.226724
    11  H    0.410010  -0.041226  -0.003636  -0.000629   0.000047  -0.000002
    12  H    0.409979  -0.041218  -0.003644  -0.000630   0.000047  -0.000002
    13  H    0.427603  -0.066950   0.008095   0.001757  -0.000184   0.000015
    14  H   -0.010455  -0.030794   0.413628  -0.046688   0.011050  -0.000386
    15  H   -0.000089   0.003852  -0.044739   0.403954  -0.006972  -0.014028
    16  H   -0.000092   0.001560  -0.001343  -0.042330   0.425385  -0.053528
    17  H   -0.000000   0.000021   0.000005  -0.000333   0.002534  -0.061346
    18  H    0.000000   0.000000   0.000009  -0.000156   0.002518   0.023135
    19  H   -0.000000  -0.000000  -0.000003   0.000065  -0.001084  -0.005073
    20  H   -0.000000  -0.000000  -0.000003   0.000065  -0.001085  -0.004973
    21  H    0.006032  -0.048773  -0.009527  -0.002276   0.003255  -0.000300
    22  H   -0.003803  -0.045451   0.000938  -0.000647  -0.000204   0.000007
    23  H   -0.003816  -0.045500   0.000985  -0.000652  -0.000204   0.000007
    24  H    0.000001  -0.000116  -0.000004   0.003504  -0.009614  -0.040699
    25  H   -0.000000   0.000005   0.000040  -0.001553   0.013655  -0.052382
    26  H    0.000001  -0.000117  -0.000001   0.003513  -0.009635  -0.040671
               7          8          9         10         11         12
     1  C    0.000000   0.000000  -0.054854  -0.000003   0.410010   0.409979
     2  C   -0.000002   0.000000   0.252511   0.000028  -0.041226  -0.041218
     3  C   -0.001025   0.000060  -0.058645  -0.003065  -0.003636  -0.003644
     4  C    0.000519  -0.000977  -0.008859   0.011441  -0.000629  -0.000630
     5  C   -0.123860   0.012168   0.006031  -0.071115   0.000047   0.000047
     6  C    0.598360  -0.021489  -0.000373   0.226724  -0.000002  -0.000002
     7  C    5.216747   0.220467   0.000018  -0.023827  -0.000000  -0.000000
     8  C    0.220467   4.974810   0.000001  -0.022756  -0.000000  -0.000000
     9  C    0.000018   0.000001   5.006466  -0.000206  -0.002692  -0.002664
    10  C   -0.023827  -0.022756  -0.000206   5.050001  -0.000000  -0.000000
    11  H   -0.000000  -0.000000  -0.002692  -0.000000   0.554936  -0.037759
    12  H   -0.000000  -0.000000  -0.002664  -0.000000  -0.037759   0.554961
    13  H   -0.000000   0.000000   0.006363   0.000000  -0.022477  -0.022479
    14  H    0.000013   0.000002   0.005058   0.000213   0.000287   0.000288
    15  H    0.000688  -0.000022  -0.001575   0.001774  -0.000007  -0.000007
    16  H    0.005102   0.000245   0.000080   0.004408   0.000001   0.000001
    17  H    0.420562  -0.027085   0.000000   0.005399  -0.000000  -0.000000
    18  H   -0.084735   0.441405   0.000000  -0.007445  -0.000000  -0.000000
    19  H   -0.037908   0.411127  -0.000000   0.000944   0.000000  -0.000000
    20  H   -0.038031   0.411224  -0.000000   0.000942  -0.000000   0.000000
    21  H    0.000012   0.000000   0.431623   0.000215  -0.000031  -0.000030
    22  H   -0.000001  -0.000000   0.413091  -0.000002  -0.001093   0.004624
    23  H   -0.000000  -0.000000   0.413136  -0.000002   0.004626  -0.001097
    24  H   -0.003804   0.000809   0.000016   0.419850   0.000000  -0.000000
    25  H   -0.007018  -0.003364   0.000003   0.426685  -0.000000  -0.000000
    26  H   -0.003830   0.000813   0.000016   0.419842  -0.000000   0.000000
              13         14         15         16         17         18
     1  C    0.427603  -0.010455  -0.000089  -0.000092  -0.000000   0.000000
     2  C   -0.066950  -0.030794   0.003852   0.001560   0.000021   0.000000
     3  C    0.008095   0.413628  -0.044739  -0.001343   0.000005   0.000009
     4  C    0.001757  -0.046688   0.403954  -0.042330  -0.000333  -0.000156
     5  C   -0.000184   0.011050  -0.006972   0.425385   0.002534   0.002518
     6  C    0.000015  -0.000386  -0.014028  -0.053528  -0.061346   0.023135
     7  C   -0.000000   0.000013   0.000688   0.005102   0.420562  -0.084735
     8  C    0.000000   0.000002  -0.000022   0.000245  -0.027085   0.441405
     9  C    0.006363   0.005058  -0.001575   0.000080   0.000000   0.000000
    10  C    0.000000   0.000213   0.001774   0.004408   0.005399  -0.007445
    11  H   -0.022477   0.000287  -0.000007   0.000001  -0.000000  -0.000000
    12  H   -0.022479   0.000288  -0.000007   0.000001  -0.000000  -0.000000
    13  H    0.528213   0.003267   0.000039   0.000015   0.000000   0.000000
    14  H    0.003267   0.502423   0.003164   0.006713   0.000018  -0.000000
    15  H    0.000039   0.003164   0.490213   0.004593   0.000064  -0.000007
    16  H    0.000015   0.006713   0.004593   0.498561   0.006525   0.000055
    17  H    0.000000   0.000018   0.000064   0.006525   0.509087   0.003455
    18  H    0.000000  -0.000000  -0.000007   0.000055   0.003455   0.530619
    19  H   -0.000000   0.000000   0.000001  -0.000046  -0.001868  -0.023729
    20  H   -0.000000   0.000000   0.000001  -0.000046  -0.001900  -0.023749
    21  H   -0.000242   0.000076   0.002208   0.000012  -0.000000  -0.000000
    22  H   -0.000055  -0.000172  -0.000056  -0.000002   0.000000  -0.000000
    23  H   -0.000054  -0.000172  -0.000055  -0.000002   0.000000  -0.000000
    24  H   -0.000000  -0.000016  -0.002918  -0.000125  -0.000237  -0.000159
    25  H    0.000000   0.000002   0.000639  -0.000058   0.000271   0.005584
    26  H   -0.000000  -0.000016  -0.002919  -0.000125  -0.000238  -0.000159
              19         20         21         22         23         24
     1  C   -0.000000  -0.000000   0.006032  -0.003803  -0.003816   0.000001
     2  C   -0.000000  -0.000000  -0.048773  -0.045451  -0.045500  -0.000116
     3  C   -0.000003  -0.000003  -0.009527   0.000938   0.000985  -0.000004
     4  C    0.000065   0.000065  -0.002276  -0.000647  -0.000652   0.003504
     5  C   -0.001084  -0.001085   0.003255  -0.000204  -0.000204  -0.009614
     6  C   -0.005073  -0.004973  -0.000300   0.000007   0.000007  -0.040699
     7  C   -0.037908  -0.038031   0.000012  -0.000001  -0.000000  -0.003804
     8  C    0.411127   0.411224   0.000000  -0.000000  -0.000000   0.000809
     9  C   -0.000000  -0.000000   0.431623   0.413091   0.413136   0.000016
    10  C    0.000944   0.000942   0.000215  -0.000002  -0.000002   0.419850
    11  H    0.000000  -0.000000  -0.000031  -0.001093   0.004626   0.000000
    12  H   -0.000000   0.000000  -0.000030   0.004624  -0.001097  -0.000000
    13  H   -0.000000  -0.000000  -0.000242  -0.000055  -0.000054  -0.000000
    14  H    0.000000   0.000000   0.000076  -0.000172  -0.000172  -0.000016
    15  H    0.000001   0.000001   0.002208  -0.000056  -0.000055  -0.002918
    16  H   -0.000046  -0.000046   0.000012  -0.000002  -0.000002  -0.000125
    17  H   -0.001868  -0.001900  -0.000000   0.000000   0.000000  -0.000237
    18  H   -0.023729  -0.023749  -0.000000  -0.000000  -0.000000  -0.000159
    19  H    0.547858  -0.033571  -0.000000  -0.000000   0.000000   0.000335
    20  H   -0.033571   0.547851  -0.000000   0.000000  -0.000000  -0.000191
    21  H   -0.000000  -0.000000   0.528116  -0.023089  -0.023101   0.000110
    22  H   -0.000000   0.000000  -0.023089   0.547909  -0.035145  -0.000005
    23  H    0.000000  -0.000000  -0.023101  -0.035145   0.547912   0.000010
    24  H    0.000335  -0.000191   0.000110  -0.000005   0.000010   0.543641
    25  H   -0.000080  -0.000076  -0.000005  -0.000000  -0.000000  -0.021311
    26  H   -0.000191   0.000333   0.000110   0.000010  -0.000005  -0.037277
              25         26
     1  C   -0.000000   0.000001
     2  C    0.000005  -0.000117
     3  C    0.000040  -0.000001
     4  C   -0.001553   0.003513
     5  C    0.013655  -0.009635
     6  C   -0.052382  -0.040671
     7  C   -0.007018  -0.003830
     8  C   -0.003364   0.000813
     9  C    0.000003   0.000016
    10  C    0.426685   0.419842
    11  H   -0.000000  -0.000000
    12  H   -0.000000   0.000000
    13  H    0.000000  -0.000000
    14  H    0.000002  -0.000016
    15  H    0.000639  -0.002919
    16  H   -0.000058  -0.000125
    17  H    0.000271  -0.000238
    18  H    0.005584  -0.000159
    19  H   -0.000080  -0.000191
    20  H   -0.000076   0.000333
    21  H   -0.000005   0.000110
    22  H   -0.000000   0.000010
    23  H   -0.000000  -0.000005
    24  H   -0.021311  -0.037277
    25  H    0.520663  -0.021309
    26  H   -0.021309   0.543666
 Mulliken charges:
               1
     1  C   -0.398657
     2  C    0.071079
     3  C   -0.252880
     4  C   -0.137143
     5  C   -0.203452
     6  C    0.013294
     7  C   -0.138447
     8  C   -0.397437
     9  C   -0.404545
    10  C   -0.440044
    11  H    0.139645
    12  H    0.139631
    13  H    0.137076
    14  H    0.142498
    15  H    0.162206
    16  H    0.144440
    17  H    0.145064
    18  H    0.133359
    19  H    0.143224
    20  H    0.143209
    21  H    0.135605
    22  H    0.143146
    23  H    0.143129
    24  H    0.148200
    25  H    0.139610
    26  H    0.148190
 Sum of Mulliken charges =  -0.00000
 Mulliken charges with hydrogens summed into heavy atoms:
               1
     1  C    0.017694
     2  C    0.071079
     3  C   -0.110382
     4  C    0.025064
     5  C   -0.059012
     6  C    0.013294
     7  C    0.006618
     8  C    0.022355
     9  C    0.017334
    10  C   -0.004044
 Electronic spatial extent (au):  <R**2>=           2880.8534
 Charge=             -0.0000 electrons
 Dipole moment (field-independent basis, Debye):
    X=              0.1648    Y=              0.5862    Z=              0.0002  Tot=              0.6089
 Quadrupole moment (field-independent basis, Debye-Ang):
   XX=            -53.3322   YY=            -59.9249   ZZ=            -68.1831
   XY=              1.0671   XZ=              0.0012   YZ=              0.0002
 Traceless Quadrupole moment (field-independent basis, Debye-Ang):
   XX=              7.1478   YY=              0.5552   ZZ=             -7.7030
   XY=              1.0671   XZ=              0.0012   YZ=              0.0002
 Octapole moment (field-independent basis, Debye-Ang**2):
  XXX=             -0.2246  YYY=             -3.6148  ZZZ=              0.0012  XYY=             -2.3208
  XXY=              0.9163  XXZ=              0.0038  XZZ=              2.3967  YZZ=              3.0999
  YYZ=              0.0013  XYZ=              0.0037
 Hexadecapole moment (field-independent basis, Debye-Ang**3):
 XXXX=          -3271.9615 YYYY=           -450.3106 ZZZZ=           -108.4167 XXXY=             23.8231
 XXXZ=             -0.0045 YYYX=             -0.9911 YYYZ=              0.0012 ZZZX=              0.0226
 ZZZY=             -0.0000 XXYY=           -639.4047 XXZZ=           -599.5622 YYZZ=            -96.0674
 XXYZ=             -0.0119 YYXZ=             -0.0160 ZZXY=              5.6092
 N-N= 4.785987318692D+02 E-N=-1.861893304619D+03  KE= 3.883760852288D+02
 Unable to Open any file for archive entry.
 1\1\GINC-CN11\SP\RCAM-B3LYP TD-FC\def2TZVP\C10H16\2100011873\04-Nov-20
 23\0\\# td=(nstates=50) CAM-b3lyp/def2TZVP scrf(smd, solvent=ethanol)\
 \B-2\\0,1\C,0,4.186043,-0.985243,-0.000113\C,0,2.965678,-0.099955,0.00
 0017\C,0,1.724259,-0.63647,-0.000213\C,0,0.452578,0.059668,-0.000179\C
 ,0,-0.741079,-0.579413,-0.000205\C,0,-2.064372,0.040415,-0.000137\C,0,
 -3.152878,-0.763225,0.000253\C,0,-4.604173,-0.385851,0.000427\C,0,3.26
 0391,1.378273,0.000567\C,0,-2.133175,1.550261,-0.000541\H,0,4.817179,-
 0.791217,-0.879673\H,0,4.817098,-0.791647,0.879598\H,0,3.922096,-2.047
 445,-0.000374\H,0,1.652379,-1.72528,-0.000493\H,0,0.469127,1.146468,-0
 .000113\H,0,-0.735417,-1.670538,-0.000304\H,0,-2.968126,-1.838635,0.00
 044\H,0,-4.773466,0.693748,0.001475\H,0,-5.114894,-0.80271,-0.879231\H
 ,0,-5.115042,-0.80447,0.879137\H,0,2.363003,2.000757,0.000075\H,0,3.85
 9006,1.653716,0.880554\H,0,3.86032,1.65418,-0.878355\H,0,-1.627265,1.9
 64044,-0.882102\H,0,-3.158688,1.923675,-0.000452\H,0,-1.626926,1.96459
 6,0.880567\\Version=ES64L-G16RevC.02\State=1-A\HF=-390.5748313\RMSD=2.
 673e-09\PG=C01 [X(C10H16)]\\@
 The archive entry for this job was punched.


 THOSE WHO ASPIRE NOT TO GUESS AND DIVINE,
 BUT TO DISCOVER AND KNOW, WHO PROPOSE NOT TO DEVISE 
 MIMIC AND FABULOUS WORLDS OF THEIR OWN, BUT TO 
 EXAMINE AND DISSECT THE NATURE OF THIS VERY WORLD 
 ITSELF, MUST GO TO THE FACTS THEMSELVES FOR EVERYTHING.

                               -- FRANCIS BACON, 1620
 Job cpu time:       0 days  4 hours  2 minutes 23.1 seconds.
 Elapsed time:       0 days  0 hours  8 minutes  7.3 seconds.
 File lengths (MBytes):  RWF=   3120 Int=      0 D2E=      0 Chk=    256 Scr=     32
 Normal termination of Gaussian 16 at Sat Nov  4 03:30:57 2023.
