 Entering Gaussian System, Link 0=g16
 Initial command:
 /nfs-share/home/2100011873/Gaussian16_AVX2/g16/l1.exe "/nfs-share/home/2100011873/GaussTmp/Gau-246657.inp" -scrdir="/nfs-share/home/2100011873/GaussTmp/"
 Entering Link 1 = /nfs-share/home/2100011873/Gaussian16_AVX2/g16/l1.exe PID=    246658.
  
 Copyright (c) 1988-2021, Gaussian, Inc.  All Rights Reserved.
  
 This is part of the Gaussian(R) 16 program.  It is based on
 the Gaussian(R) 09 system (copyright 2009, Gaussian, Inc.),
 the Gaussian(R) 03 system (copyright 2003, Gaussian, Inc.),
 the Gaussian(R) 98 system (copyright 1998, Gaussian, Inc.),
 the Gaussian(R) 94 system (copyright 1995, Gaussian, Inc.),
 the Gaussian 92(TM) system (copyright 1992, Gaussian, Inc.),
 the Gaussian 90(TM) system (copyright 1990, Gaussian, Inc.),
 the Gaussian 88(TM) system (copyright 1988, Gaussian, Inc.),
 the Gaussian 86(TM) system (copyright 1986, Carnegie Mellon
 University), and the Gaussian 82(TM) system (copyright 1983,
 Carnegie Mellon University). Gaussian is a federally registered
 trademark of Gaussian, Inc.
  
 This software contains proprietary and confidential information,
 including trade secrets, belonging to Gaussian, Inc.
  
 This software is provided under written license and may be
 used, copied, transmitted, or stored only in accord with that
 written license.
  
 The following legend is applicable only to US Government
 contracts under FAR:
  
                    RESTRICTED RIGHTS LEGEND
  
 Use, reproduction and disclosure by the US Government is
 subject to restrictions as set forth in subparagraphs (a)
 and (c) of the Commercial Computer Software - Restricted
 Rights clause in FAR 52.227-19.
  
 Gaussian, Inc.
 340 Quinnipiac St., Bldg. 40, Wallingford CT 06492
  
  
 ---------------------------------------------------------------
 Warning -- This program may not be used in any manner that
 competes with the business of Gaussian, Inc. or will provide
 assistance to any competitor of Gaussian, Inc.  The licensee
 of this program is prohibited from giving any competitor of
 Gaussian, Inc. access to this program.  By using this program,
 the user acknowledges that Gaussian, Inc. is engaged in the
 business of creating and licensing software in the field of
 computational chemistry and represents and warrants to the
 licensee that it is not a competitor of Gaussian, Inc. and that
 it will not use this program in any manner prohibited above.
 ---------------------------------------------------------------
  

 Cite this work as:
 Gaussian 16, Revision C.02,
 M. J. Frisch, G. W. Trucks, H. B. Schlegel, G. E. Scuseria, 
 M. A. Robb, J. R. Cheeseman, G. Scalmani, V. Barone, 
 G. A. Petersson, H. Nakatsuji, X. Li, M. Caricato, A. V. Marenich, 
 J. Bloino, B. G. Janesko, R. Gomperts, B. Mennucci, H. P. Hratchian, 
 J. V. Ortiz, A. F. Izmaylov, J. L. Sonnenberg, D. Williams-Young, 
 F. Ding, F. Lipparini, F. Egidi, J. Goings, B. Peng, A. Petrone, 
 T. Henderson, D. Ranasinghe, V. G. Zakrzewski, J. Gao, N. Rega, 
 G. Zheng, W. Liang, M. Hada, M. Ehara, K. Toyota, R. Fukuda, 
 J. Hasegawa, M. Ishida, T. Nakajima, Y. Honda, O. Kitao, H. Nakai, 
 T. Vreven, K. Throssell, J. A. Montgomery, Jr., J. E. Peralta, 
 F. Ogliaro, M. J. Bearpark, J. J. Heyd, E. N. Brothers, K. N. Kudin, 
 V. N. Staroverov, T. A. Keith, R. Kobayashi, J. Normand, 
 K. Raghavachari, A. P. Rendell, J. C. Burant, S. S. Iyengar, 
 J. Tomasi, M. Cossi, J. M. Millam, M. Klene, C. Adamo, R. Cammi, 
 J. W. Ochterski, R. L. Martin, K. Morokuma, O. Farkas, 
 J. B. Foresman, and D. J. Fox, Gaussian, Inc., Wallingford CT, 2019.
 
 ******************************************
 Gaussian 16:  ES64L-G16RevC.02  7-Dec-2021
                 4-Nov-2023 
 ******************************************
 %nprocshared=32
 Will use up to   32 processors via shared memory.
 %mem=128GB
 ----------------------------------------------------------------
 # td=(nstates=150) CAM-b3lyp/def2TZVP scrf(smd, solvent=ethanol)
 ----------------------------------------------------------------
 1/38=1,172=1/1;
 2/12=2,17=6,18=5,40=1/2;
 3/5=44,7=101,11=9,25=1,30=1,70=32201,72=4,74=-40/1,2,3,8;
 4//1;
 5/5=2,38=5,53=4/2;
 8/6=1,10=1,108=150/1;
 9/41=150,42=1,70=2/14;
 6/7=2,8=2,9=2,10=2/1;
 99/5=1,9=1/99;
 ---
 B-1
 ---
 Symbolic Z-matrix:
 Charge =  0 Multiplicity = 1
 C                    -13.19325  -1.96518   0.35751 
 C                    -14.15023  -1.3663   -0.66684 
 C                    -14.19793   0.14589  -0.46999 
 C                    -12.83989   0.78112  -0.26594 
 C                    -11.69919   0.06912  -0.02054 
 C                    -11.73425  -1.46329   0.19794 
 C                    -10.43464   0.80864   0.02792 
 C                    -9.1477    0.36849   0.05193 
 C                    -7.97098   1.21881   0.06402 
 C                    -6.73848   0.61877   0.06999 
 C                    -5.44585   1.23802   0.07821 
 C                    -4.28033   0.52598   0.08121 
 C                    -2.9426    1.06363   0.08601 
 C                    -1.88552   0.18504   0.0869 
 C                    -0.48836   0.47987   0.08838 
 C                     0.48836  -0.47988   0.08838 
 C                     1.88552  -0.18505   0.0869 
 C                     2.9426   -1.06364   0.08601 
 C                     4.28033  -0.52598   0.08121 
 C                     5.44585  -1.23802   0.07821 
 C                     6.73848  -0.61878   0.06999 
 C                     7.97098  -1.21882   0.06402 
 C                     9.1477   -0.36849   0.05193 
 C                     10.43464  -0.80864   0.02791 
 C                     11.69919  -0.06911  -0.02054 
 C                     11.73425   1.4633    0.19794 
 C                    -11.0146  -1.85387   1.51323 
 C                    -11.08758  -2.20926  -0.99638 
 C                    -12.87893   2.29364  -0.39889 
 C                     13.19324   1.96519   0.35753 
 C                     14.15024   1.36631  -0.66682 
 C                     14.19793  -0.14588  -0.46997 
 C                     12.83989  -0.78111  -0.26594 
 C                     11.01458   1.85387   1.51322 
 C                     11.08758   2.20926  -0.99639 
 C                     12.87893  -2.29364  -0.39888 
 C                     8.15656  -2.71718   0.0685 
 C                     2.76951  -2.56424   0.08879 
 C                    -2.7695    2.56423   0.08879 
 C                    -8.15656   2.71718   0.0685 
 H                    -13.55224  -1.70444   1.36372 
 H                    -13.19179  -3.06159   0.30296 
 H                    -15.15315  -1.79827  -0.56305 
 H                    -13.81309  -1.59776  -1.68519 
 H                    -14.83673   0.39264   0.39555 
 H                    -14.68517   0.6313   -1.32865 
 H                    -10.55321   1.88625  -0.00013 
 H                    -8.93157  -0.69442   0.04825 
 H                    -6.72719  -0.47229   0.0666 
 H                    -5.39419   2.32333   0.08055 
 H                    -4.35407  -0.56241   0.07851 
 H                    -2.13643  -0.87673   0.08526 
 H                    -0.17247   1.5217    0.08852 
 H                     0.17247  -1.52171   0.08852 
 H                     2.13644   0.87672   0.08527 
 H                     4.35407   0.5624    0.07851 
 H                     5.39419  -2.32334   0.08054 
 H                     6.72719   0.47229   0.06659 
 H                     8.93157   0.69442   0.04824 
 H                     10.55321  -1.88625  -0.00012 
 H                    -11.41656  -1.28058   2.35641 
 H                    -11.18397  -2.91813   1.72001 
 H                    -9.93616  -1.69087   1.48859 
 H                    -10.06227  -1.88498  -1.18781 
 H                    -11.06723  -3.28878  -0.80027 
 H                    -11.65314  -2.04558  -1.91992 
 H                    -13.91376   2.64896  -0.35064 
 H                    -12.32451   2.80958   0.39214 
 H                    -12.46878   2.63324  -1.36008 
 H                     13.19178   3.06159   0.30298 
 H                     13.55222   1.70445   1.36374 
 H                     15.15315   1.79828  -0.56302 
 H                     13.8131   1.59777  -1.68517 
 H                     14.83673  -0.39263   0.39557 
 H                     14.68518  -0.63129  -1.32863 
 H                     11.18393   2.91814   1.72 
 H                     9.93614   1.69087   1.48856 
 H                     11.41653   1.28059   2.3564 
 H                     10.06228   1.88498  -1.18783 
 H                     11.06723   3.28878  -0.80029 
 H                     11.65315   2.04558  -1.91993 
 H                     13.91377  -2.64895  -0.35064 
 H                     12.32452  -2.80958   0.39214 
 H                     12.46878  -2.63323  -1.36007 
 H                     8.74409  -3.03646   0.93873 
 H                     7.20915  -3.25795   0.09305 
 H                     8.70422  -3.04723  -0.82368 
 H                     3.24804  -3.01107   0.96953 
 H                     1.72147  -2.86803   0.09271 
 H                     3.24239  -3.01383  -0.79361 
 H                    -3.2424    3.01383  -0.7936 
 H                    -3.24802   3.01106   0.96955 
 H                    -1.72147   2.86802   0.09269 
 H                    -7.20914   3.25794   0.09306 
 H                    -8.70421   3.04723  -0.82368 
 H                    -8.74409   3.03646   0.93873 
 
 Stoichiometry    C40H56
 Framework group  C1[X(C40H56)]
 Deg. of freedom   282
 Full point group                 C1      NOp   1
 Largest Abelian subgroup         C1      NOp   1
 Largest concise Abelian subgroup C1      NOp   1
                         Standard orientation:                         
 ---------------------------------------------------------------------
 Center     Atomic      Atomic             Coordinates (Angstroms)
 Number     Number       Type             X           Y           Z
 ---------------------------------------------------------------------
      1          6           0       13.193247    1.965180    0.357514
      2          6           0       14.150234    1.366297   -0.666837
      3          6           0       14.197930   -0.145886   -0.469985
      4          6           0       12.839886   -0.781119   -0.265942
      5          6           0       11.699193   -0.069117   -0.020535
      6          6           0       11.734254    1.463294    0.197940
      7          6           0       10.434640   -0.808638    0.027915
      8          6           0        9.147698   -0.368486    0.051934
      9          6           0        7.970978   -1.218813    0.064023
     10          6           0        6.738479   -0.618773    0.069992
     11          6           0        5.445845   -1.238015    0.078209
     12          6           0        4.280328   -0.525977    0.081210
     13          6           0        2.942601   -1.063627    0.086009
     14          6           0        1.885522   -0.185039    0.086900
     15          6           0        0.488362   -0.479870    0.088382
     16          6           0       -0.488364    0.479879    0.088381
     17          6           0       -1.885523    0.185049    0.086901
     18          6           0       -2.942603    1.063636    0.086010
     19          6           0       -4.280330    0.525984    0.081210
     20          6           0       -5.445847    1.238022    0.078205
     21          6           0       -6.738480    0.618778    0.069986
     22          6           0       -7.970980    1.218816    0.064016
     23          6           0       -9.147699    0.368486    0.051926
     24          6           0      -10.434641    0.808636    0.027911
     25          6           0      -11.699193    0.069112   -0.020539
     26          6           0      -11.734248   -1.463299    0.197935
     27          6           0       11.014600    1.853868    1.513234
     28          6           0       11.087577    2.209256   -0.996377
     29          6           0       12.878927   -2.293643   -0.398885
     30          6           0      -13.193238   -1.965187    0.357525
     31          6           0      -14.150237   -1.366308   -0.666817
     32          6           0      -14.197934    0.145875   -0.469969
     33          6           0      -12.839889    0.781111   -0.265939
     34          6           0      -11.014576   -1.853870    1.513220
     35          6           0      -11.087582   -2.209257   -0.996389
     36          6           0      -12.878932    2.293635   -0.398883
     37          6           0       -8.156563    2.717180    0.068498
     38          6           0       -2.769507    2.564242    0.088788
     39          6           0        2.769504   -2.564233    0.088790
     40          6           0        8.156557   -2.717177    0.068503
     41          1           0       13.552240    1.704444    1.363722
     42          1           0       13.191791    3.061587    0.302962
     43          1           0       15.153148    1.798268   -0.563053
     44          1           0       13.813091    1.597755   -1.685187
     45          1           0       14.836732   -0.392637    0.395545
     46          1           0       14.685170   -0.631298   -1.328645
     47          1           0       10.553209   -1.886254   -0.000126
     48          1           0        8.931571    0.694424    0.048253
     49          1           0        6.727188    0.472294    0.066595
     50          1           0        5.394190   -2.323329    0.080545
     51          1           0        4.354073    0.562407    0.078511
     52          1           0        2.136434    0.876729    0.085263
     53          1           0        0.172471   -1.521700    0.088524
     54          1           0       -0.172472    1.521709    0.088521
     55          1           0       -2.136435   -0.876720    0.085267
     56          1           0       -4.354074   -0.562400    0.078514
     57          1           0       -5.394193    2.323335    0.080538
     58          1           0       -6.727188   -0.472289    0.066588
     59          1           0       -8.931568   -0.694423    0.048240
     60          1           0      -10.553213    1.886252   -0.000123
     61          1           0       11.416560    1.280584    2.356412
     62          1           0       11.183965    2.918133    1.720013
     63          1           0        9.936160    1.690871    1.488587
     64          1           0       10.062275    1.884980   -1.187807
     65          1           0       11.067226    3.288779   -0.800274
     66          1           0       11.653135    2.045583   -1.919919
     67          1           0       13.913764   -2.648960   -0.350635
     68          1           0       12.324510   -2.809583    0.392139
     69          1           0       12.468777   -2.633235   -1.360075
     70          1           0      -13.191780   -3.061594    0.302976
     71          1           0      -13.552222   -1.704450    1.363737
     72          1           0      -15.153149   -1.798281   -0.563022
     73          1           0      -13.813104   -1.597768   -1.685170
     74          1           0      -14.836727    0.392627    0.395567
     75          1           0      -14.685183    0.631285   -1.328625
     76          1           0      -11.183932   -2.918136    1.719999
     77          1           0       -9.936137   -1.690867    1.488558
     78          1           0      -11.416527   -1.280589    2.356403
     79          1           0      -10.062283   -1.884978   -1.187830
     80          1           0      -11.067226   -3.288781   -0.800288
     81          1           0      -11.653150   -2.045585   -1.919926
     82          1           0      -13.913771    2.648951   -0.350639
     83          1           0      -12.324521    2.809577    0.392144
     84          1           0      -12.468777    2.633229   -1.360071
     85          1           0       -8.744087    3.036457    0.938730
     86          1           0       -7.209146    3.257946    0.093047
     87          1           0       -8.704221    3.047232   -0.823677
     88          1           0       -3.248036    3.011075    0.969534
     89          1           0       -1.721470    2.868026    0.092705
     90          1           0       -3.242385    3.013831   -0.793611
     91          1           0        3.242396   -3.013825   -0.793600
     92          1           0        3.248019   -3.011063    0.969546
     93          1           0        1.721466   -2.868016    0.092692
     94          1           0        7.209140   -3.257941    0.093061
     95          1           0        8.704208   -3.047230   -0.823677
     96          1           0        8.744089   -3.036455    0.938730
 ---------------------------------------------------------------------
 Rotational constants (GHZ):           0.3478418           0.0099525           0.0097368
 Standard basis: def2TZVP (5D, 7F)
 There are  1776 symmetry adapted cartesian basis functions of A   symmetry.
 There are  1576 symmetry adapted basis functions of A   symmetry.
  1576 basis functions,  2488 primitive gaussians,  1776 cartesian basis functions
   148 alpha electrons      148 beta electrons
       nuclear repulsion energy      3637.1617565307 Hartrees.
 NAtoms=   96 NActive=   96 NUniq=   96 SFac= 1.00D+00 NAtFMM=   60 NAOKFM=T Big=T
 Integral buffers will be    131072 words long.
 Raffenetti 1 integral format.
 Two-electron integral symmetry is turned on.
 ------------------------------------------------------------------------------
 Polarizable Continuum Model (PCM)
 =================================
 Model                : PCM.
 Atomic radii         : SMD-Coulomb.
 Polarization charges : Total charges.
 Charge compensation  : None.
 Solution method      : On-the-fly selection.
 Cavity type          : VdW (van der Waals Surface) (Alpha=1.000).
 Cavity algorithm     : GePol (No added spheres)
                        Default sphere list used, NSphG=   96.
                        Lebedev-Laikov grids with approx.  5.0 points / Ang**2.
                        Smoothing algorithm: York/Karplus (Gamma=1.0000).
                        Polarization charges: spherical gaussians, with
                                              point-specific exponents (IZeta= 3).
                        Self-potential: point-specific (ISelfS= 7).
                        Self-field    : sphere-specific E.n sum rule (ISelfD= 2).
 Solvent              : Ethanol, Eps=  24.852000 Eps(inf)=   1.852593
 ------------------------------------------------------------------------------
 ------------------------------------------------------------------------------
 Atomic radii for non-electrostatic terms: SMD-CDS.
 ------------------------------------------------------------------------------
 Nuclear repulsion after PCM non-electrostatic terms =     3637.1521877144 Hartrees.
 One-electron integrals computed using PRISM.
   1 Symmetry operations used in ECPInt.
 ECPInt:  NShTT=  220780 NPrTT=  646864 LenC2=  101855 LenP2D=  205935.
 LDataN:  DoStor=T MaxTD1= 6 Len=  172
 NBasis=  1576 RedAO= T EigKep=  1.02D-05  NBF=  1576
 NBsUse=  1576 1.00D-06 EigRej= -1.00D+00 NBFU=  1576
 ExpMin= 9.52D-02 ExpMax= 1.36D+04 ExpMxC= 4.63D+02 IAcc=3 IRadAn=         5 AccDes= 0.00D+00
 Harris functional with IExCor=20419 and IRadAn=       5 diagonalized for initial guess.
 HarFok:  IExCor=20419 AccDes= 0.00D+00 IRadAn=         5 IDoV= 1 UseB2=F ITyADJ=14
 ICtDFT=  3500011 ScaDFX=  1.000000  1.000000  1.000000  1.000000
 FoFCou: FMM=F IPFlag=           0 FMFlag=      100000 FMFlg1=        2001
         NFxFlg=           0 DoJE=T BraDBF=F KetDBF=T FulRan=T
         wScrn=  0.000000 ICntrl=       500 IOpCl=  0 I1Cent=   200000004 NGrid=           0
         NMat0=    1 NMatS0=      1 NMatT0=    0 NMatD0=    1 NMtDS0=    0 NMtDT0=    0
 Petite list used in FoFCou.
 Requested convergence on RMS density matrix=1.00D-08 within 128 cycles.
 Requested convergence on MAX density matrix=1.00D-06.
 Requested convergence on             energy=1.00D-06.
 No special actions if energy rises.
 Inv3:  Mode=1 IEnd=   125194800.
 Iteration    1 A*A^-1 deviation from unit magnitude is 3.33D-15 for   3598.
 Iteration    1 A*A^-1 deviation from orthogonality  is 2.66D-15 for   5685    374.
 Iteration    1 A^-1*A deviation from unit magnitude is 3.11D-15 for   3598.
 Iteration    1 A^-1*A deviation from orthogonality  is 3.55D-15 for   4759   1478.
 Error on total polarization charges =  0.12691
 SCF Done:  E(RCAM-B3LYP) =  -1557.51993465     A.U. after   13 cycles
            NFock= 13  Conv=0.56D-08     -V/T= 2.0056
 SMD-CDS (non-electrostatic) energy       (kcal/mol) =      -6.00
 (included in total energy above)
 DoSCS=F DFT=T ScalE2(SS,OS)=  1.000000  1.000000
 ExpMin= 9.52D-02 ExpMax= 1.36D+04 ExpMxC= 4.63D+02 IAcc=3 IRadAn=         5 AccDes= 0.00D+00
 HarFok:  IExCor=  205 AccDes= 0.00D+00 IRadAn=         5 IDoV=-2 UseB2=F ITyADJ=14
 ICtDFT= 12500011 ScaDFX=  1.000000  1.000000  1.000000  1.000000
 GSVD:  LWork=       -1920 too small for GESVD, short by        8600 words or        8600 for optimal perf.
 Range of M.O.s used for correlation:    41  1576
 NBasis=  1576 NAE=   148 NBE=   148 NFC=    40 NFV=     0
 NROrb=   1536 NOA=   108 NOB=   108 NVA=  1428 NVB=  1428

 **** Warning!!: The largest alpha MO coefficient is  0.27874289D+02

 NEqPCM:  Using non-equilibrium solvation (IEInf=1, Eps=  24.8520, EpsInf=   1.8526)
 Inv3:  Mode=1 IEnd=   125194800.
 Iteration    1 A*A^-1 deviation from unit magnitude is 3.77D-15 for   5055.
 Iteration    1 A*A^-1 deviation from orthogonality  is 2.22D-15 for   5273    365.
 Iteration    1 A^-1*A deviation from unit magnitude is 3.77D-15 for   4735.
 Iteration    1 A^-1*A deviation from orthogonality  is 2.09D-15 for   2559   1667.
 Orbital symmetries:
       Occupied  (A) (A) (A) (A) (A) (A) (A) (A) (A) (A) (A) (A)
                 (A) (A) (A) (A) (A) (A) (A) (A) (A) (A) (A) (A)
                 (A) (A) (A) (A) (A) (A) (A) (A) (A) (A) (A) (A)
                 (A) (A) (A) (A) (A) (A) (A) (A) (A) (A) (A) (A)
                 (A) (A) (A) (A) (A) (A) (A) (A) (A) (A) (A) (A)
                 (A) (A) (A) (A) (A) (A) (A) (A) (A) (A) (A) (A)
                 (A) (A) (A) (A) (A) (A) (A) (A) (A) (A) (A) (A)
                 (A) (A) (A) (A) (A) (A) (A) (A) (A) (A) (A) (A)
                 (A) (A) (A) (A) (A) (A) (A) (A) (A) (A) (A) (A)
                 (A) (A) (A) (A) (A) (A) (A) (A) (A) (A) (A) (A)
                 (A) (A) (A) (A) (A) (A) (A) (A) (A) (A) (A) (A)
                 (A) (A) (A) (A) (A) (A) (A) (A) (A) (A) (A) (A)
                 (A) (A) (A) (A)
       Virtual   (A) (A) (A) (A) (A) (A) (A) (A) (A) (A) (A) (A)
                 (A) (A) (A) (A) (A) (A) (A) (A) (A) (A) (A) (A)
                 (A) (A) (A) (A) (A) (A) (A) (A) (A) (A) (A) (A)
                 (A) (A) (A) (A) (A) (A) (A) (A) (A) (A) (A) (A)
                 (A) (A) (A) (A) (A) (A) (A) (A) (A) (A) (A) (A)
                 (A) (A) (A) (A) (A) (A) (A) (A) (A) (A) (A) (A)
                 (A) (A) (A) (A) (A) (A) (A) (A) (A) (A) (A) (A)
                 (A) (A) (A) (A) (A) (A) (A) (A) (A) (A) (A) (A)
                 (A) (A) (A) (A) (A) (A) (A) (A) (A) (A) (A) (A)
                 (A) (A) (A) (A) (A) (A) (A) (A) (A) (A) (A) (A)
                 (A) (A) (A) (A) (A) (A) (A) (A) (A) (A) (A) (A)
                 (A) (A) (A) (A) (A) (A) (A) (A) (A) (A) (A) (A)
                 (A) (A) (A) (A) (A) (A) (A) (A) (A) (A) (A) (A)
                 (A) (A) (A) (A) (A) (A) (A) (A) (A) (A) (A) (A)
                 (A) (A) (A) (A) (A) (A) (A) (A) (A) (A) (A) (A)
                 (A) (A) (A) (A) (A) (A) (A) (A) (A) (A) (A) (A)
                 (A) (A) (A) (A) (A) (A) (A) (A) (A) (A) (A) (A)
                 (A) (A) (A) (A) (A) (A) (A) (A) (A) (A) (A) (A)
                 (A) (A) (A) (A) (A) (A) (A) (A) (A) (A) (A) (A)
                 (A) (A) (A) (A) (A) (A) (A) (A) (A) (A) (A) (A)
                 (A) (A) (A) (A) (A) (A) (A) (A) (A) (A) (A) (A)
                 (A) (A) (A) (A) (A) (A) (A) (A) (A) (A) (A) (A)
                 (A) (A) (A) (A) (A) (A) (A) (A) (A) (A) (A) (A)
                 (A) (A) (A) (A) (A) (A) (A) (A) (A) (A) (A) (A)
                 (A) (A) (A) (A) (A) (A) (A) (A) (A) (A) (A) (A)
                 (A) (A) (A) (A) (A) (A) (A) (A) (A) (A) (A) (A)
                 (A) (A) (A) (A) (A) (A) (A) (A) (A) (A) (A) (A)
                 (A) (A) (A) (A) (A) (A) (A) (A) (A) (A) (A) (A)
                 (A) (A) (A) (A) (A) (A) (A) (A) (A) (A) (A) (A)
                 (A) (A) (A) (A) (A) (A) (A) (A) (A) (A) (A) (A)
                 (A) (A) (A) (A) (A) (A) (A) (A) (A) (A) (A) (A)
                 (A) (A) (A) (A) (A) (A) (A) (A) (A) (A) (A) (A)
                 (A) (A) (A) (A) (A) (A) (A) (A) (A) (A) (A) (A)
                 (A) (A) (A) (A) (A) (A) (A) (A) (A) (A) (A) (A)
                 (A) (A) (A) (A) (A) (A) (A) (A) (A) (A) (A) (A)
                 (A) (A) (A) (A) (A) (A) (A) (A) (A) (A) (A) (A)
                 (A) (A) (A) (A) (A) (A) (A) (A) (A) (A) (A) (A)
                 (A) (A) (A) (A) (A) (A) (A) (A) (A) (A) (A) (A)
                 (A) (A) (A) (A) (A) (A) (A) (A) (A) (A) (A) (A)
                 (A) (A) (A) (A) (A) (A) (A) (A) (A) (A) (A) (A)
                 (A) (A) (A) (A) (A) (A) (A) (A) (A) (A) (A) (A)
                 (A) (A) (A) (A) (A) (A) (A) (A) (A) (A) (A) (A)
                 (A) (A) (A) (A) (A) (A) (A) (A) (A) (A) (A) (A)
                 (A) (A) (A) (A) (A) (A) (A) (A) (A) (A) (A) (A)
                 (A) (A) (A) (A) (A) (A) (A) (A) (A) (A) (A) (A)
                 (A) (A) (A) (A) (A) (A) (A) (A) (A) (A) (A) (A)
                 (A) (A) (A) (A) (A) (A) (A) (A) (A) (A) (A) (A)
                 (A) (A) (A) (A) (A) (A) (A) (A) (A) (A) (A) (A)
                 (A) (A) (A) (A) (A) (A) (A) (A) (A) (A) (A) (A)
                 (A) (A) (A) (A) (A) (A) (A) (A) (A) (A) (A) (A)
                 (A) (A) (A) (A) (A) (A) (A) (A) (A) (A) (A) (A)
                 (A) (A) (A) (A) (A) (A) (A) (A) (A) (A) (A) (A)
                 (A) (A) (A) (A) (A) (A) (A) (A) (A) (A) (A) (A)
                 (A) (A) (A) (A) (A) (A) (A) (A) (A) (A) (A) (A)
                 (A) (A) (A) (A) (A) (A) (A) (A) (A) (A) (A) (A)
                 (A) (A) (A) (A) (A) (A) (A) (A) (A) (A) (A) (A)
                 (A) (A) (A) (A) (A) (A) (A) (A) (A) (A) (A) (A)
                 (A) (A) (A) (A) (A) (A) (A) (A) (A) (A) (A) (A)
                 (A) (A) (A) (A) (A) (A) (A) (A) (A) (A) (A) (A)
                 (A) (A) (A) (A) (A) (A) (A) (A) (A) (A) (A) (A)
                 (A) (A) (A) (A) (A) (A) (A) (A) (A) (A) (A) (A)
                 (A) (A) (A) (A) (A) (A) (A) (A) (A) (A) (A) (A)
                 (A) (A) (A) (A) (A) (A) (A) (A) (A) (A) (A) (A)
                 (A) (A) (A) (A) (A) (A) (A) (A) (A) (A) (A) (A)
                 (A) (A) (A) (A) (A) (A) (A) (A) (A) (A) (A) (A)
                 (A) (A) (A) (A) (A) (A) (A) (A) (A) (A) (A) (A)
                 (A) (A) (A) (A) (A) (A) (A) (A) (A) (A) (A) (A)
                 (A) (A) (A) (A) (A) (A) (A) (A) (A) (A) (A) (A)
                 (A) (A) (A) (A) (A) (A) (A) (A) (A) (A) (A) (A)
                 (A) (A) (A) (A) (A) (A) (A) (A) (A) (A) (A) (A)
                 (A) (A) (A) (A) (A) (A) (A) (A) (A) (A) (A) (A)
                 (A) (A) (A) (A) (A) (A) (A) (A) (A) (A) (A) (A)
                 (A) (A) (A) (A) (A) (A) (A) (A) (A) (A) (A) (A)
                 (A) (A) (A) (A) (A) (A) (A) (A) (A) (A) (A) (A)
                 (A) (A) (A) (A) (A) (A) (A) (A) (A) (A) (A) (A)
                 (A) (A) (A) (A) (A) (A) (A) (A) (A) (A) (A) (A)
                 (A) (A) (A) (A) (A) (A) (A) (A) (A) (A) (A) (A)
                 (A) (A) (A) (A) (A) (A) (A) (A) (A) (A) (A) (A)
                 (A) (A) (A) (A) (A) (A) (A) (A) (A) (A) (A) (A)
                 (A) (A) (A) (A) (A) (A) (A) (A) (A) (A) (A) (A)
                 (A) (A) (A) (A) (A) (A) (A) (A) (A) (A) (A) (A)
                 (A) (A) (A) (A) (A) (A) (A) (A) (A) (A) (A) (A)
                 (A) (A) (A) (A) (A) (A) (A) (A) (A) (A) (A) (A)
                 (A) (A) (A) (A) (A) (A) (A) (A) (A) (A) (A) (A)
                 (A) (A) (A) (A) (A) (A) (A) (A) (A) (A) (A) (A)
                 (A) (A) (A) (A) (A) (A) (A) (A) (A) (A) (A) (A)
                 (A) (A) (A) (A) (A) (A) (A) (A) (A) (A) (A) (A)
                 (A) (A) (A) (A) (A) (A) (A) (A) (A) (A) (A) (A)
                 (A) (A) (A) (A) (A) (A) (A) (A) (A) (A) (A) (A)
                 (A) (A) (A) (A) (A) (A) (A) (A) (A) (A) (A) (A)
                 (A) (A) (A) (A) (A) (A) (A) (A) (A) (A) (A) (A)
                 (A) (A) (A) (A) (A) (A) (A) (A) (A) (A) (A) (A)
                 (A) (A) (A) (A) (A) (A) (A) (A) (A) (A) (A) (A)
                 (A) (A) (A) (A) (A) (A) (A) (A) (A) (A) (A) (A)
                 (A) (A) (A) (A) (A) (A) (A) (A) (A) (A) (A) (A)
                 (A) (A) (A) (A) (A) (A) (A) (A) (A) (A) (A) (A)
                 (A) (A) (A) (A) (A) (A) (A) (A) (A) (A) (A) (A)
                 (A) (A) (A) (A) (A) (A) (A) (A) (A) (A) (A) (A)
                 (A) (A) (A) (A) (A) (A) (A) (A) (A) (A) (A) (A)
                 (A) (A) (A) (A) (A) (A) (A) (A) (A) (A) (A) (A)
                 (A) (A) (A) (A) (A) (A) (A) (A) (A) (A) (A) (A)
                 (A) (A) (A) (A) (A) (A) (A) (A) (A) (A) (A) (A)
                 (A) (A) (A) (A) (A) (A) (A) (A) (A) (A) (A) (A)
                 (A) (A) (A) (A) (A) (A) (A) (A) (A) (A) (A) (A)
                 (A) (A) (A) (A) (A) (A) (A) (A) (A) (A) (A) (A)
                 (A) (A) (A) (A) (A) (A) (A) (A) (A) (A) (A) (A)
                 (A) (A) (A) (A) (A) (A) (A) (A) (A) (A) (A) (A)
                 (A) (A) (A) (A) (A) (A) (A) (A) (A) (A) (A) (A)
                 (A) (A) (A) (A) (A) (A) (A) (A) (A) (A) (A) (A)
                 (A) (A) (A) (A) (A) (A) (A) (A) (A) (A) (A) (A)
                 (A) (A) (A) (A) (A) (A) (A) (A) (A) (A) (A) (A)
                 (A) (A) (A) (A) (A) (A) (A) (A) (A) (A) (A) (A)
                 (A) (A) (A) (A) (A) (A) (A) (A) (A) (A) (A) (A)
                 (A) (A) (A) (A) (A) (A) (A) (A) (A) (A) (A) (A)
                 (A) (A) (A) (A) (A) (A) (A) (A) (A) (A) (A) (A)
                 (A) (A) (A) (A) (A) (A) (A) (A) (A) (A) (A) (A)
                 (A) (A) (A) (A) (A) (A) (A) (A) (A) (A) (A) (A)
                 (A) (A) (A) (A) (A) (A) (A) (A) (A) (A) (A) (A)
                 (A) (A) (A) (A) (A) (A) (A) (A) (A) (A) (A) (A)
   600 initial guesses have been made.
 Convergence on wavefunction:    0.001000000000000
 Iteration     1 Dimension   600 NMult     0 NNew    600
 CISAX will form    64 AO SS matrices at one time.
 New state      6 was old state      7
 New state      7 was old state      6
 New state      8 was old state     10
 New state      9 was old state      8
 New state     10 was old state      9
 New state     12 was old state     14
 New state     13 was old state     15
 New state     14 was old state     16
 New state     15 was old state     21
 New state     16 was old state     19
 New state     17 was old state     20
 New state     18 was old state     12
 New state     19 was old state     22
 New state     20 was old state     17
 New state     21 was old state     26
 New state     22 was old state     27
 New state     23 was old state     24
 New state     24 was old state     41
 New state     25 was old state     49
 New state     26 was old state     13
 New state     27 was old state     29
 New state     28 was old state     54
 New state     29 was old state     70
 New state     30 was old state     31
 New state     31 was old state     37
 New state     32 was old state     72
 New state     33 was old state     25
 New state     34 was old state     23
 New state     35 was old state     18
 New state     36 was old state     43
 New state     37 was old state     30
 New state     38 was old state     28
 New state     39 was old state     79
 New state     40 was old state     48
 New state     41 was old state     39
 New state     42 was old state     98
 New state     43 was old state     33
 New state     44 was old state     34
 New state     45 was old state     32
 New state     46 was old state     40
 New state     47 was old state     35
 New state     48 was old state     87
 New state     49 was old state     38
 New state     50 was old state     56
 New state     51 was old state     42
 New state     52 was old state     91
 New state     53 was old state    122
 New state     54 was old state     44
 New state     55 was old state     61
 New state     56 was old state     84
 New state     57 was old state    129
 New state     58 was old state     46
 New state     59 was old state     50
 New state     60 was old state     51
 New state     61 was old state     45
 New state     62 was old state     60
 New state     63 was old state     47
 New state     64 was old state     36
 New state     65 was old state     96
 New state     66 was old state     99
 New state     67 was old state     62
 New state     68 was old state    125
 New state     69 was old state    107
 New state     70 was old state     58
 New state     71 was old state    112
 New state     72 was old state     71
 New state     73 was old state     55
 New state     74 was old state     57
 New state     75 was old state     53
 New state     76 was old state    164
 New state     77 was old state     52
 New state     78 was old state     64
 New state     79 was old state     78
 New state     80 was old state     95
 New state     81 was old state     74
 New state     82 was old state     94
 New state     83 was old state    143
 New state     84 was old state    233
 New state     85 was old state     82
 New state     86 was old state     77
 New state     87 was old state    159
 New state     88 was old state    153
 New state     89 was old state     68
 New state     90 was old state     67
 New state     91 was old state     85
 New state     92 was old state    170
 New state     93 was old state     76
 New state     94 was old state     97
 New state     95 was old state     86
 New state     96 was old state    141
 New state     97 was old state     83
 New state     98 was old state     80
 New state     99 was old state     73
 New state    100 was old state    274
 New state    101 was old state     90
 New state    102 was old state     93
 New state    103 was old state     92
 New state    104 was old state    103
 New state    105 was old state    102
 New state    106 was old state    236
 New state    107 was old state     88
 New state    108 was old state     81
 New state    109 was old state     89
 New state    110 was old state    106
 New state    111 was old state    188
 New state    112 was old state     75
 New state    113 was old state    100
 New state    114 was old state    181
 New state    115 was old state    145
 New state    116 was old state    219
 New state    117 was old state    190
 New state    118 was old state    101
 New state    119 was old state    105
 New state    120 was old state    108
 New state    121 was old state    104
 New state    122 was old state    127
 New state    123 was old state    132
 New state    124 was old state    115
 New state    125 was old state    111
 New state    126 was old state    117
 New state    127 was old state    113
 New state    128 was old state    151
 New state    129 was old state    128
 New state    130 was old state    158
 New state    131 was old state    110
 New state    132 was old state    168
 New state    133 was old state    121
 New state    134 was old state    165
 New state    135 was old state     59
 New state    136 was old state    118
 New state    137 was old state    162
 New state    138 was old state     66
 New state    139 was old state    160
 New state    140 was old state    123
 New state    141 was old state    131
 New state    142 was old state    124
 New state    143 was old state    114
 New state    144 was old state    134
 New state    145 was old state    206
 New state    146 was old state    133
 New state    147 was old state    119
 New state    148 was old state    205
 New state    149 was old state    126
 New state    150 was old state    140
 Iteration     2 Dimension   900 NMult   600 NNew    300
 New state      8 was old state     10
 New state      9 was old state      8
 New state     10 was old state      9
 New state     11 was old state     20
 New state     12 was old state     11
 New state     13 was old state     14
 New state     14 was old state     12
 New state     15 was old state     13
 New state     18 was old state     15
 New state     19 was old state     18
 New state     20 was old state     19
 New state     21 was old state     27
 New state     22 was old state     21
 New state     23 was old state     22
 New state     24 was old state     23
 New state     25 was old state     24
 New state     27 was old state     29
 New state     28 was old state     25
 New state     29 was old state     28
 New state     30 was old state     33
 New state     31 was old state     32
 New state     32 was old state     30
 New state     33 was old state     41
 New state     34 was old state     31
 New state     35 was old state     34
 New state     36 was old state     37
 New state     37 was old state     35
 New state     39 was old state     36
 New state     40 was old state     39
 New state     41 was old state     65
 New state     43 was old state     40
 New state     44 was old state     47
 New state     45 was old state     46
 New state     46 was old state     43
 New state     47 was old state     48
 New state     48 was old state     53
 New state     49 was old state     45
 New state     50 was old state     44
 New state     51 was old state     72
 New state     52 was old state     51
 New state     53 was old state     57
 New state     54 was old state     49
 New state     55 was old state     50
 New state     56 was old state     52
 New state     57 was old state     55
 New state     58 was old state     54
 New state     59 was old state     82
 New state     60 was old state     68
 New state     61 was old state     56
 New state     62 was old state     58
 New state     63 was old state     60
 New state     64 was old state     59
 New state     65 was old state     62
 New state     66 was old state     67
 New state     67 was old state     61
 New state     68 was old state     64
 New state     69 was old state     63
 New state     70 was old state     66
 New state     71 was old state     76
 New state     72 was old state     70
 New state     73 was old state     69
 New state     74 was old state     80
 New state     75 was old state     71
 New state     76 was old state     81
 New state     77 was old state     84
 New state     78 was old state     73
 New state     79 was old state     74
 New state     80 was old state     75
 New state     81 was old state     77
 New state     82 was old state     78
 New state     83 was old state     79
 New state     84 was old state     89
 New state     85 was old state     87
 New state     86 was old state     85
 New state     87 was old state     86
 New state     89 was old state     83
 New state     90 was old state     92
 New state     91 was old state    100
 New state     92 was old state     91
 New state     94 was old state     90
 New state     96 was old state     97
 New state     97 was old state     94
 New state     99 was old state    101
 New state    100 was old state     96
 New state    101 was old state     99
 New state    102 was old state    106
 New state    103 was old state    102
 New state    104 was old state    103
 New state    105 was old state    111
 New state    106 was old state    117
 New state    107 was old state    104
 New state    108 was old state    105
 New state    109 was old state    108
 New state    111 was old state    107
 New state    112 was old state    113
 New state    113 was old state    109
 New state    114 was old state    112
 New state    115 was old state    114
 New state    116 was old state    128
 New state    117 was old state    115
 New state    118 was old state    116
 New state    119 was old state    118
 New state    120 was old state    119
 New state    121 was old state    123
 New state    122 was old state    130
 New state    123 was old state    120
 New state    124 was old state    121
 New state    125 was old state    124
 New state    126 was old state    122
 New state    127 was old state    126
 New state    128 was old state    127
 New state    130 was old state    134
 New state    131 was old state    125
 New state    132 was old state    138
 New state    133 was old state    137
 New state    134 was old state    150
 New state    135 was old state    132
 New state    136 was old state    148
 New state    137 was old state    131
 New state    138 was old state    136
 New state    139 was old state    135
 New state    140 was old state    133
 New state    141 was old state    147
 New state    142 was old state    141
 New state    143 was old state    139
 New state    145 was old state    140
 New state    146 was old state    142
 New state    147 was old state    146
 New state    148 was old state    143
 New state    149 was old state    145
 New state    150 was old state    151
 Iteration     3 Dimension  1200 NMult   900 NNew    300
 New state     25 was old state     26
 New state     26 was old state     25
 New state     49 was old state     51
 New state     50 was old state     49
 New state     51 was old state     50
 New state    111 was old state    112
 New state    112 was old state    111
 New state    131 was old state    132
 New state    132 was old state    131
 New state    135 was old state    136
 New state    136 was old state    135
 New state    138 was old state    139
 New state    139 was old state    138
 New state    141 was old state    143
 New state    143 was old state    141
 New state    144 was old state    149
 New state    145 was old state    144
 New state    146 was old state    145
 New state    148 was old state    146
 New state    149 was old state    148
 No map to state    150
 Iteration     4 Dimension  1498 NMult  1200 NNew    298
 New state    135 was old state    141
 New state    136 was old state    135
 New state    137 was old state    136
 New state    138 was old state    137
 New state    139 was old state    138
 New state    140 was old state    139
 New state    141 was old state    140
 New state    145 was old state    147
 New state    146 was old state    145
 New state    147 was old state    146
 New state    149 was old state    150
 New state    150 was old state    149
 Iteration     5 Dimension  1676 NMult  1498 NNew    178
 Iteration     6 Dimension  1716 NMult  1676 NNew     40
 Iteration     7 Dimension  1728 NMult  1716 NNew     12
 ***********************************************************************
 Excited states from <AA,BB:AA,BB> singles matrix:
 ***********************************************************************
 
 Ground to excited state transition densities written to RWF  633
 Ground to excited state transition electric dipole moments (Au):
       state          X           Y           Z        Dip. S.      Osc.
         1         8.9180     -1.4320      0.0000     81.5806      4.6021
         2        -0.0000      0.0000     -0.1758      0.0309      0.0025
         3        -0.0000      0.0000      0.0665      0.0044      0.0004
         4         1.6211      0.6793     -0.0000      3.0895      0.3024
         5        -1.5548     -0.0585      0.0000      2.4210      0.2579
         6        -0.0000     -0.0000     -0.1767      0.0312      0.0036
         7        -0.6617      0.5920     -0.0000      0.7883      0.0942
         8         0.0000      0.0000      0.1588      0.0252      0.0031
         9         0.0724     -0.3693     -0.0000      0.1416      0.0179
        10         0.0000     -0.0000     -0.0082      0.0001      0.0000
        11        -0.4905      0.5181      0.0000      0.5090      0.0705
        12         0.0000      0.0000     -0.0632      0.0040      0.0006
        13         0.0000      0.0000      0.0370      0.0014      0.0002
        14        -0.0830      0.0747      0.0000      0.0125      0.0018
        15        -0.0000      0.0000     -0.3450      0.1191      0.0172
        16        -0.0502     -0.0686      0.0000      0.0072      0.0011
        17         0.0000      0.0000      0.0138      0.0002      0.0000
        18        -0.1016      0.0628     -0.0000      0.0143      0.0021
        19        -0.1893      0.1085     -0.0000      0.0476      0.0071
        20         0.0000     -0.0000     -0.2491      0.0620      0.0093
        21         0.0000      0.0000     -0.0562      0.0032      0.0005
        22         0.0000      0.0000      0.0147      0.0002      0.0000
        23        -0.0034      0.0379     -0.0000      0.0014      0.0002
        24         0.0816     -0.0935     -0.0000      0.0154      0.0024
        25        -0.1591     -0.1032      0.0000      0.0360      0.0056
        26         0.1438     -0.2139     -0.0000      0.0664      0.0103
        27         0.0226      0.0320     -0.0000      0.0015      0.0002
        28        -0.4903      0.5328     -0.0000      0.5243      0.0828
        29         0.0000     -0.0000      0.0191      0.0004      0.0001
        30         0.2914     -0.2567      0.0000      0.1508      0.0240
        31        -0.0000      0.0000     -0.0626      0.0039      0.0006
        32        -0.0000      0.0000      0.0388      0.0015      0.0002
        33        -0.0000     -0.0000      0.0283      0.0008      0.0001
        34         0.0172      0.0488      0.0000      0.0027      0.0004
        35         0.0000      0.0000     -0.0161      0.0003      0.0000
        36         0.0014      0.0062      0.0000      0.0000      0.0000
        37         0.0493     -0.3426      0.0000      0.1198      0.0195
        38        -0.0000     -0.0000     -0.0522      0.0027      0.0004
        39        -0.0000     -0.0000     -0.0962      0.0093      0.0015
        40         0.0190     -0.0450      0.0000      0.0024      0.0004
        41        -0.4131      0.5173      0.0000      0.4382      0.0731
        42        -0.0000      0.0000     -0.0145      0.0002      0.0000
        43        -0.1159      0.0004     -0.0000      0.0134      0.0023
        44         0.0000      0.0000      0.1455      0.0212      0.0036
        45         0.1160     -0.5507      0.0000      0.3167      0.0542
        46         0.0000     -0.0000     -0.0376      0.0014      0.0002
        47         0.0124     -0.0834     -0.0000      0.0071      0.0012
        48        -0.0093      0.0189      0.0000      0.0004      0.0001
        49        -0.0000      0.0000     -0.0031      0.0000      0.0000
        50         0.0000      0.0000      0.0273      0.0007      0.0001
        51         0.0542      0.1193     -0.0000      0.0172      0.0030
        52         0.0731     -0.3842     -0.0000      0.1529      0.0269
        53        -0.0000     -0.0000      0.0366      0.0013      0.0002
        54         0.0000      0.0000     -0.0062      0.0000      0.0000
        55         0.0000     -0.0000      0.0398      0.0016      0.0003
        56         0.0000      0.0000     -0.1528      0.0233      0.0042
        57         0.3330      0.1485      0.0000      0.1329      0.0238
        58        -0.0000     -0.0000      0.0035      0.0000      0.0000
        59        -0.0588     -0.1226     -0.0000      0.0185      0.0033
        60         0.0000     -0.0000      0.0206      0.0004      0.0001
        61        -0.1442      0.0483      0.0000      0.0231      0.0042
        62        -0.0351     -0.0056      0.0000      0.0013      0.0002
        63        -0.0252     -0.1198      0.0000      0.0150      0.0027
        64         0.0000      0.0000      0.0164      0.0003      0.0000
        65         0.0000     -0.0000     -0.0770      0.0059      0.0011
        66        -0.0926      0.1024     -0.0000      0.0191      0.0035
        67         0.0000      0.0000      0.0009      0.0000      0.0000
        68         0.0000     -0.0000      0.0127      0.0002      0.0000
        69         0.0136     -0.1166      0.0000      0.0138      0.0025
        70        -0.0000      0.0000      0.0586      0.0034      0.0006
        71         0.1020     -0.0403     -0.0000      0.0120      0.0022
        72         0.0754     -0.2845     -0.0000      0.0866      0.0160
        73         0.0000     -0.0000     -0.0027      0.0000      0.0000
        74         0.0000     -0.0000      0.0986      0.0097      0.0018
        75        -0.1924     -0.0875      0.0000      0.0447      0.0083
        76        -0.0000     -0.0000     -0.0690      0.0048      0.0009
        77        -0.0717      0.0357     -0.0000      0.0064      0.0012
        78         0.0533      0.0421      0.0000      0.0046      0.0009
        79         0.0000     -0.0000     -0.0139      0.0002      0.0000
        80         0.0000      0.0000      0.1382      0.0191      0.0036
        81         0.1891      0.2818      0.0000      0.1152      0.0218
        82         0.1978      0.0394      0.0000      0.0407      0.0077
        83        -0.0000     -0.0000      0.0629      0.0040      0.0008
        84         0.0000      0.0000     -0.0796      0.0063      0.0012
        85        -0.3529     -0.0455     -0.0000      0.1266      0.0241
        86         0.0000      0.0000     -0.1126      0.0127      0.0024
        87         0.2014      0.4671      0.0000      0.2587      0.0494
        88         0.0000      0.0000      0.1153      0.0133      0.0025
        89         0.1736      0.1294      0.0000      0.0469      0.0090
        90         0.1524     -0.6915     -0.0000      0.5013      0.0965
        91        -0.0000      0.0000     -0.1191      0.0142      0.0027
        92        -0.0000      0.0000     -0.0124      0.0002      0.0000
        93         0.0000     -0.0000      0.0402      0.0016      0.0003
        94        -0.0453      0.3351      0.0000      0.1143      0.0222
        95         0.0005      0.1362      0.0000      0.0185      0.0036
        96         0.0000     -0.0000      0.0791      0.0063      0.0012
        97         0.0000     -0.0000      0.0420      0.0018      0.0003
        98         0.2774     -0.3336     -0.0000      0.1883      0.0368
        99        -0.0511     -0.0006      0.0000      0.0026      0.0005
       100        -0.0000      0.0000     -0.0690      0.0048      0.0009
       101        -0.3690      0.3181     -0.0000      0.2373      0.0466
       102         0.0082      0.0598     -0.0000      0.0036      0.0007
       103         0.0000      0.0000     -0.0672      0.0045      0.0009
       104         0.1863      0.1056      0.0000      0.0459      0.0091
       105         0.0000      0.0000     -0.0154      0.0002      0.0000
       106         0.0141     -0.1279     -0.0000      0.0166      0.0033
       107         0.0000      0.0000     -0.0564      0.0032      0.0006
       108         0.2152     -0.3232     -0.0000      0.1508      0.0299
       109        -0.0000     -0.0002     -0.0583      0.0034      0.0007
       110         0.1313      0.3819     -0.0000      0.1631      0.0325
       111        -0.0000      0.0000     -0.0584      0.0034      0.0007
       112        -0.1381      0.2080      0.0000      0.0623      0.0125
       113        -0.0000     -0.0000      0.1025      0.0105      0.0021
       114        -0.1006      0.5553      0.0000      0.3185      0.0641
       115        -0.0722      0.1013      0.0000      0.0155      0.0031
       116         0.0000     -0.0000     -0.0251      0.0006      0.0001
       117        -0.0000     -0.0000     -0.0722      0.0052      0.0011
       118         0.1134      0.1431     -0.0000      0.0333      0.0068
       119        -0.0000     -0.0001     -0.0456      0.0021      0.0004
       120         0.0112      0.0295     -0.0000      0.0010      0.0002
       121         0.0000      0.0000     -0.0230      0.0005      0.0001
       122         0.0682     -0.0362      0.0000      0.0060      0.0012
       123        -0.0000     -0.0000      0.0562      0.0032      0.0006
       124        -0.1013     -0.0493      0.0000      0.0127      0.0026
       125        -0.0497      0.0245      0.0000      0.0031      0.0006
       126        -0.0000      0.0000      0.0249      0.0006      0.0001
       127         0.0000      0.0000      0.0957      0.0092      0.0019
       128        -0.0000     -0.0000     -0.0167      0.0003      0.0001
       129        -0.0243     -0.0110      0.0000      0.0007      0.0001
       130        -0.0000     -0.0000     -0.0027      0.0000      0.0000
       131         0.0001     -0.0013      0.0223      0.0005      0.0001
       132         0.0170     -0.3453     -0.0001      0.1195      0.0247
       133        -0.0000     -0.0000      0.0019      0.0000      0.0000
       134         0.0710      0.3849     -0.0000      0.1532      0.0318
       135        -0.0733     -0.1652     -0.0000      0.0327      0.0068
       136        -0.0000      0.0000      0.0130      0.0002      0.0000
       137         0.1077     -0.1277     -0.0000      0.0279      0.0058
       138        -0.0193      0.0047      0.0000      0.0004      0.0001
       139         0.1646     -0.0558      0.0000      0.0302      0.0063
       140         0.0000     -0.0000      0.0987      0.0097      0.0020
       141        -0.0000     -0.0000      0.1190      0.0142      0.0030
       142        -0.0106      0.0925     -0.0000      0.0087      0.0018
       143        -0.0000     -0.0000      0.0810      0.0066      0.0014
       144         0.0379      0.0296      0.0000      0.0023      0.0005
       145        -0.0309      0.0331      0.0000      0.0021      0.0004
       146        -0.0000     -0.0000      0.0443      0.0020      0.0004
       147         0.0000      0.0000     -0.1887      0.0356      0.0075
       148        -0.1047      0.0655     -0.0000      0.0153      0.0032
       149        -0.0460     -0.0699     -0.0000      0.0070      0.0015
       150         0.0000     -0.0000      0.0207      0.0004      0.0001
 Ground to excited state transition velocity dipole moments (Au):
       state          X           Y           Z        Dip. S.      Osc.
         1        -0.7509      0.1211     -0.0000      0.5785      4.5577
         2         0.0000     -0.0000      0.0210      0.0004      0.0025
         3         0.0000     -0.0000     -0.0090      0.0001      0.0004
         4        -0.2380     -0.0982     -0.0000      0.0663      0.3009
         5         0.2463      0.0069     -0.0000      0.0607      0.2534
         6        -0.0000     -0.0000      0.0305      0.0009      0.0036
         7         0.1178     -0.1061      0.0000      0.0251      0.0935
         8         0.0000      0.0000     -0.0295      0.0009      0.0031
         9        -0.0142      0.0706     -0.0000      0.0052      0.0182
        10        -0.0000      0.0000      0.0016      0.0000      0.0000
        11         0.1027     -0.1095     -0.0000      0.0225      0.0723
        12        -0.0000     -0.0000      0.0133      0.0002      0.0006
        13        -0.0000     -0.0000     -0.0079      0.0001      0.0002
        14         0.0173     -0.0160     -0.0000      0.0006      0.0017
        15         0.0000     -0.0000      0.0789      0.0062      0.0192
        16         0.0114      0.0151     -0.0000      0.0004      0.0011
        17        -0.0000     -0.0000     -0.0040      0.0000      0.0000
        18         0.0221     -0.0139     -0.0000      0.0007      0.0021
        19         0.0425     -0.0239      0.0000      0.0024      0.0071
        20         0.0000      0.0000      0.0552      0.0030      0.0090
        21        -0.0000     -0.0000      0.0110      0.0001      0.0004
        22        -0.0000     -0.0000     -0.0035      0.0000      0.0000
        23         0.0006     -0.0084     -0.0000      0.0001      0.0002
        24        -0.0173      0.0224     -0.0000      0.0008      0.0023
        25         0.0371      0.0254     -0.0000      0.0020      0.0058
        26        -0.0313      0.0515     -0.0000      0.0036      0.0104
        27        -0.0053     -0.0078      0.0000      0.0001      0.0003
        28         0.1150     -0.1248     -0.0000      0.0288      0.0811
        29        -0.0000      0.0000     -0.0045      0.0000      0.0001
        30        -0.0674      0.0644      0.0000      0.0087      0.0242
        31        -0.0000      0.0000      0.0151      0.0002      0.0006
        32         0.0000     -0.0000     -0.0093      0.0001      0.0002
        33         0.0000      0.0000     -0.0063      0.0000      0.0001
        34        -0.0057     -0.0128      0.0000      0.0002      0.0005
        35        -0.0000     -0.0000      0.0038      0.0000      0.0000
        36         0.0003     -0.0007     -0.0000      0.0000      0.0000
        37        -0.0124      0.0825     -0.0000      0.0070      0.0190
        38         0.0000      0.0000      0.0133      0.0002      0.0005
        39        -0.0000     -0.0000      0.0240      0.0006      0.0016
        40        -0.0045      0.0110     -0.0000      0.0001      0.0004
        41         0.1051     -0.1260     -0.0000      0.0269      0.0717
        42         0.0000     -0.0000      0.0035      0.0000      0.0000
        43         0.0294      0.0001      0.0000      0.0009      0.0023
        44        -0.0000     -0.0000     -0.0369      0.0014      0.0036
        45        -0.0310      0.1387     -0.0000      0.0202      0.0525
        46        -0.0000      0.0000      0.0092      0.0001      0.0002
        47        -0.0035      0.0209      0.0000      0.0004      0.0012
        48         0.0026     -0.0047     -0.0000      0.0000      0.0001
        49        -0.0000      0.0000     -0.0001      0.0000      0.0000
        50        -0.0000     -0.0000     -0.0091      0.0001      0.0002
        51        -0.0136     -0.0309      0.0000      0.0011      0.0029
        52        -0.0192      0.1017      0.0000      0.0107      0.0271
        53        -0.0000      0.0000     -0.0106      0.0001      0.0003
        54         0.0000     -0.0000      0.0018      0.0000      0.0000
        55        -0.0000      0.0000     -0.0114      0.0001      0.0003
        56        -0.0000      0.0000      0.0441      0.0019      0.0048
        57        -0.0895     -0.0385     -0.0000      0.0095      0.0236
        58        -0.0000      0.0000     -0.0019      0.0000      0.0000
        59         0.0155      0.0328     -0.0000      0.0013      0.0033
        60        -0.0000     -0.0000     -0.0067      0.0000      0.0001
        61         0.0382     -0.0117     -0.0000      0.0016      0.0039
        62         0.0089      0.0016     -0.0000      0.0001      0.0002
        63         0.0077      0.0318     -0.0000      0.0011      0.0026
        64        -0.0000     -0.0000     -0.0055      0.0000      0.0001
        65        -0.0000      0.0000      0.0202      0.0004      0.0010
        66         0.0245     -0.0256      0.0000      0.0013      0.0031
        67        -0.0000      0.0000      0.0002      0.0000      0.0000
        68        -0.0000      0.0000     -0.0039      0.0000      0.0000
        69        -0.0050      0.0332     -0.0000      0.0011      0.0027
        70         0.0000     -0.0000     -0.0136      0.0002      0.0004
        71        -0.0278      0.0116     -0.0000      0.0009      0.0022
        72        -0.0211      0.0799      0.0000      0.0068      0.0165
        73        -0.0000     -0.0000      0.0019      0.0000      0.0000
        74        -0.0000     -0.0000     -0.0265      0.0007      0.0017
        75         0.0545      0.0251      0.0000      0.0036      0.0086
        76         0.0000      0.0000      0.0192      0.0004      0.0009
        77         0.0201     -0.0102      0.0000      0.0005      0.0012
        78        -0.0152     -0.0118      0.0000      0.0004      0.0009
        79        -0.0000     -0.0000      0.0023      0.0000      0.0000
        80        -0.0000      0.0000     -0.0387      0.0015      0.0035
        81        -0.0542     -0.0795     -0.0000      0.0093      0.0217
        82        -0.0548     -0.0105     -0.0000      0.0031      0.0073
        83         0.0000      0.0000     -0.0156      0.0002      0.0006
        84        -0.0000     -0.0000      0.0215      0.0005      0.0011
        85         0.1017      0.0139      0.0000      0.0105      0.0246
        86        -0.0000     -0.0000      0.0326      0.0011      0.0025
        87        -0.0591     -0.1357     -0.0000      0.0219      0.0510
        88        -0.0000     -0.0000     -0.0334      0.0011      0.0026
        89        -0.0508     -0.0385      0.0000      0.0041      0.0094
        90        -0.0426      0.2012      0.0000      0.0423      0.0977
        91         0.0000     -0.0000      0.0343      0.0012      0.0027
        92         0.0000     -0.0000      0.0036      0.0000      0.0000
        93         0.0000      0.0000     -0.0110      0.0001      0.0003
        94         0.0129     -0.0982     -0.0000      0.0098      0.0225
        95        -0.0002     -0.0403     -0.0000      0.0016      0.0037
        96        -0.0000      0.0000     -0.0232      0.0005      0.0012
        97        -0.0000      0.0000     -0.0125      0.0002      0.0004
        98        -0.0793      0.0971      0.0000      0.0157      0.0357
        99         0.0161      0.0017     -0.0000      0.0003      0.0006
       100         0.0000     -0.0000      0.0199      0.0004      0.0009
       101         0.1072     -0.0940      0.0000      0.0203      0.0460
       102        -0.0020     -0.0172      0.0000      0.0003      0.0007
       103        -0.0000     -0.0000      0.0193      0.0004      0.0008
       104        -0.0556     -0.0306      0.0000      0.0040      0.0091
       105        -0.0000     -0.0000      0.0053      0.0000      0.0001
       106        -0.0039      0.0378      0.0000      0.0014      0.0032
       107        -0.0000     -0.0000      0.0165      0.0003      0.0006
       108        -0.0637      0.0971     -0.0000      0.0135      0.0302
       109         0.0000      0.0000      0.0172      0.0003      0.0007
       110        -0.0385     -0.1137      0.0000      0.0144      0.0321
       111         0.0000     -0.0000      0.0182      0.0003      0.0007
       112         0.0416     -0.0616     -0.0000      0.0055      0.0122
       113        -0.0000      0.0000     -0.0340      0.0012      0.0025
       114         0.0310     -0.1637     -0.0000      0.0278      0.0613
       115         0.0206     -0.0320      0.0000      0.0014      0.0032
       116        -0.0000      0.0000      0.0079      0.0001      0.0001
       117         0.0000      0.0000      0.0228      0.0005      0.0011
       118        -0.0331     -0.0416      0.0000      0.0028      0.0062
       119         0.0000      0.0000      0.0134      0.0002      0.0004
       120        -0.0037     -0.0096     -0.0000      0.0001      0.0002
       121        -0.0000     -0.0000      0.0065      0.0000      0.0001
       122        -0.0186      0.0131      0.0000      0.0005      0.0011
       123         0.0000      0.0000     -0.0180      0.0003      0.0007
       124         0.0314      0.0154     -0.0000      0.0012      0.0026
       125         0.0151     -0.0067     -0.0000      0.0003      0.0006
       126         0.0000     -0.0000     -0.0064      0.0000      0.0001
       127        -0.0000      0.0000     -0.0311      0.0010      0.0021
       128         0.0000      0.0000      0.0032      0.0000      0.0000
       129         0.0078      0.0047     -0.0000      0.0001      0.0002
       130         0.0000      0.0000      0.0021      0.0000      0.0000
       131        -0.0000      0.0004     -0.0077      0.0001      0.0001
       132        -0.0065      0.1035      0.0000      0.0108      0.0231
       133         0.0000      0.0000      0.0002      0.0000      0.0000
       134        -0.0196     -0.1156      0.0000      0.0138      0.0294
       135         0.0211      0.0489      0.0000      0.0028      0.0061
       136         0.0000     -0.0000     -0.0029      0.0000      0.0000
       137        -0.0311      0.0418      0.0000      0.0027      0.0058
       138         0.0044     -0.0027      0.0000      0.0000      0.0001
       139        -0.0503      0.0187     -0.0000      0.0029      0.0061
       140        -0.0000      0.0000     -0.0277      0.0008      0.0016
       141        -0.0000      0.0000     -0.0341      0.0012      0.0025
       142         0.0033     -0.0293      0.0000      0.0009      0.0018
       143        -0.0000     -0.0000     -0.0231      0.0005      0.0011
       144        -0.0085     -0.0063     -0.0000      0.0001      0.0002
       145         0.0098     -0.0107     -0.0000      0.0002      0.0004
       146         0.0000      0.0000     -0.0132      0.0002      0.0004
       147        -0.0000     -0.0000      0.0594      0.0035      0.0074
       148         0.0336     -0.0203     -0.0000      0.0015      0.0032
       149         0.0147      0.0232      0.0000      0.0008      0.0016
       150        -0.0000      0.0000     -0.0046      0.0000      0.0000
 Ground to excited state transition magnetic dipole moments (Au):
       state          X           Y           Z
         1        -0.0265     -0.2973      0.0001
         2        -0.0000      0.0000     -0.7377
         3         0.0000     -0.0000     -0.0394
         4         0.0077     -0.5677     -0.0000
         5         0.0053      0.4019     -0.0000
         6        -0.0000     -0.0000      0.1327
         7         0.0188      0.0601     -0.0000
         8         0.0000     -0.0000     -0.9150
         9        -0.0242     -0.5334      0.0000
        10         0.0000     -0.0000     -0.3082
        11         0.0251      0.7695     -0.0001
        12        -0.0000     -0.0000      0.7059
        13         0.0000      0.0000     -1.3052
        14         0.6640      1.5028     -0.0000
        15         0.0001      0.0002      0.2816
        16        -0.1186      0.2286     -0.0001
        17         0.0000     -0.0001     -0.5405
        18        -0.0867      0.2560     -0.0000
        19         0.0096      0.1730      0.0000
        20        -0.0000     -0.0000      1.9948
        21         0.0000      0.0000     -1.3093
        22        -0.0000      0.0000     -0.3083
        23        -0.1214      0.2586     -0.0000
        24        -0.1286     -0.4604     -0.0000
        25        -0.1606     -0.7096     -0.0000
        26         0.1486      0.0939     -0.0001
        27        -0.0721      0.0283      0.0000
        28         0.0452      0.0844     -0.0000
        29         0.0000     -0.0000     -1.1217
        30        -0.0564     -0.3529     -0.0000
        31        -0.0000      0.0000      1.1796
        32         0.0000      0.0000     -0.7597
        33         0.0000      0.0000      0.7838
        34         0.0659     -0.1324      0.0000
        35         0.0001     -0.0000     -0.1501
        36         0.2689      0.0151      0.0001
        37         0.0232      0.1168      0.0000
        38        -0.0000     -0.0000      0.1574
        39         0.0000      0.0000     -0.0136
        40         0.2807      0.3184     -0.0000
        41         0.1297      0.7435     -0.0000
        42        -0.0000     -0.0000      1.1305
        43        -0.2997     -0.8893      0.0004
        44        -0.0000     -0.0001     -4.0709
        45        -0.0493     -0.2142     -0.0000
        46         0.0000      0.0000      1.1766
        47         0.1331     -0.3943      0.0000
        48        -0.3365      0.1095     -0.0000
        49         0.0000      0.0000      1.3815
        50        -0.0000      0.0000     -1.4326
        51        -0.0100      0.1399      0.0002
        52        -0.0399     -0.4633      0.0000
        53        -0.0000     -0.0000     -0.4988
        54         0.0000      0.0000     -0.0855
        55         0.0000      0.0000     -0.2844
        56        -0.0000     -0.0000      0.4559
        57         0.0788      0.0778      0.0000
        58         0.0000      0.0001     -0.0929
        59         0.1015     -0.0070      0.0000
        60         0.0000      0.0000     -0.1496
        61         0.0205     -0.5649     -0.0000
        62         0.2307     -0.3656      0.0000
        63        -0.1167     -0.7969      0.0001
        64        -0.0000      0.0003      0.4413
        65         0.0000      0.0000      0.0747
        66        -0.1656      0.6125     -0.0000
        67         0.0000      0.0000     -1.0928
        68         0.0000      0.0000     -1.0827
        69        -0.2469     -0.2442     -0.0000
        70         0.0001      0.0001     -0.1953
        71        -0.6562     -0.2773     -0.0000
        72         0.0485     -0.1546      0.0000
        73         0.0000      0.0000      1.2446
        74        -0.0000     -0.0000     -2.5572
        75        -0.3600     -1.1268     -0.0000
        76        -0.0000      0.0000      0.3547
        77         0.2418      0.3144      0.0000
        78         0.2275      0.4568      0.0000
        79         0.0000      0.0001     -0.0420
        80        -0.0000     -0.0000     -0.1508
        81        -0.0218      0.3004     -0.0000
        82         0.1170      0.9761      0.0005
        83        -0.0000     -0.0002      2.6552
        84        -0.0000     -0.0000      2.7377
        85         0.3695      0.2126      0.0000
        86         0.0000      0.0000      1.9377
        87         0.2809     -0.1425     -0.0001
        88         0.0000     -0.0000     -0.1600
        89        -0.0371     -0.5818     -0.0000
        90        -0.0388     -1.0732     -0.0000
        91        -0.0000      0.0001      1.1840
        92        -0.0000      0.0000      0.0251
        93         0.0000     -0.0000      0.7681
        94        -0.2347     -0.0501      0.0001
        95        -0.2910     -0.1802      0.0002
        96         0.0001      0.0000      0.8180
        97         0.0000     -0.0000      0.4854
        98        -0.1033     -0.3126      0.0000
        99         0.0070     -0.1380      0.0000
       100         0.0000      0.0000      0.4196
       101        -0.4630     -0.2389      0.0000
       102        -1.3617     -0.1710     -0.0000
       103        -0.0000     -0.0000      2.4749
       104        -0.4008     -0.5254     -0.0000
       105         0.0001     -0.0000     -0.1402
       106        -0.7823     -0.4822     -0.0001
       107         0.0000     -0.0000     -2.8214
       108        -0.0207      0.3341     -0.0001
       109        -0.0002     -0.0002      2.8224
       110         0.5177      0.4290      0.0012
       111         0.0000      0.0000      0.6814
       112         0.3278      0.6092     -0.0001
       113         0.0000      0.0000     -0.4077
       114        -0.0672     -0.2635     -0.0000
       115         0.1706     -1.3417     -0.0000
       116        -0.0000      0.0000     -0.2055
       117         0.0000      0.0000      0.2701
       118        -0.1432     -0.2633     -0.0003
       119         0.0001      0.0001     -0.9930
       120         0.3199      0.3574     -0.0002
       121         0.0000     -0.0000      1.9038
       122         0.0365      0.0289      0.0001
       123        -0.0000     -0.0000     -0.3816
       124        -0.4498     -0.4399      0.0001
       125         0.2930     -0.4450     -0.0003
       126         0.0001     -0.0000      1.2328
       127        -0.0000     -0.0000     -1.7694
       128        -0.0000      0.0001      2.1109
       129        -0.0826      0.0390     -0.0001
       130         0.0000      0.0001     -0.3177
       131        -0.0022      0.0016     -0.6184
       132        -0.5982      0.4369      0.0022
       133        -0.0001     -0.0000     -0.0494
       134         0.4381      0.6875     -0.0000
       135         2.0518     -0.2028     -0.0001
       136         0.0001     -0.0000      0.4474
       137         0.2410     -0.4693     -0.0000
       138         0.3824      0.8965     -0.0000
       139        -0.1108     -0.2302      0.0001
       140        -0.0000      0.0000      1.5422
       141         0.0000      0.0000      0.4449
       142         0.5440      0.2372     -0.0000
       143        -0.0001      0.0000      0.4889
       144         0.4387      0.0100     -0.0000
       145        -0.8534     -0.0563     -0.0001
       146        -0.0000     -0.0001      1.9583
       147        -0.0000     -0.0000      1.3372
       148        -0.2843     -0.0494     -0.0000
       149         0.0677     -0.1662      0.0000
       150        -0.0000      0.0000     -0.3573
 Ground to excited state transition velocity quadrupole moments (Au):
       state          XX          YY          ZZ          XY          XZ          YZ
         1        -0.0000      0.0000     -0.0000      0.0001      0.1381     -0.0101
         2       -21.8145     -0.4157     -0.0607      1.4606     -0.0000     -0.0000
         3         8.7576      0.1899      0.0428     -0.7631      0.0000      0.0000
         4        -0.0000     -0.0000      0.0000     -0.0000      0.6869     -0.0865
         5         0.0000      0.0000      0.0000     -0.0000     -0.4593      0.0518
         6        -6.7712      0.2372     -0.0071     -0.0554      0.0000     -0.0000
         7         0.0000     -0.0000     -0.0000     -0.0000     -0.0356     -0.0124
         8         9.4150      0.0101      0.0188     -1.1533      0.0000      0.0000
         9        -0.0001     -0.0000      0.0000      0.0000      0.6494     -0.0379
        10         1.4515      0.3686     -0.0052     -0.7490      0.0000     -0.0000
        11         0.0000      0.0000     -0.0000     -0.0001     -0.9472      0.0515
        12         0.9385      0.0079      0.0315      0.5820      0.0000      0.0000
        13         2.6201      0.5132      0.0132     -1.5967     -0.0000     -0.0000
        14         0.0001      0.0000      0.0000     -0.0000     -1.5494      0.5802
        15        -0.3434      0.0094     -0.0735      0.1866     -0.0002      0.0001
        16        -0.0000     -0.0000      0.0000     -0.0001      0.0524     -0.1003
        17        -0.1472     -0.1311      0.0149     -0.4526      0.0000      0.0000
        18         0.0000      0.0000      0.0000     -0.0000     -0.2781     -0.0226
        19        -0.0001      0.0000      0.0000      0.0000     -0.1743      0.0124
        20        -3.4687      0.0364      0.0563      2.1057      0.0000      0.0000
        21         2.3064     -0.0348      0.0220     -1.2545     -0.0000     -0.0000
        22        -0.1899      0.0230      0.0704     -0.2791     -0.0000     -0.0000
        23        -0.0000     -0.0000      0.0000     -0.0000     -0.2679     -0.1162
        24         0.0001      0.0000      0.0000     -0.0000      0.5091     -0.0843
        25         0.0000     -0.0000      0.0000     -0.0000      0.6199     -0.0841
        26         0.0001     -0.0000      0.0000     -0.0000     -0.0365      0.0961
        27         0.0000      0.0000     -0.0000      0.0000     -0.0500     -0.0330
        28        -0.0000     -0.0000      0.0000     -0.0000     -0.0557      0.0079
        29        -0.6059      0.0083     -0.0006     -1.1491      0.0000     -0.0000
        30        -0.0001     -0.0000      0.0000      0.0000      0.3430     -0.0192
        31        -1.2844     -0.0770      0.0442      1.2233     -0.0000      0.0000
        32         2.7588      0.0007     -0.0398     -0.7897     -0.0000     -0.0000
        33        -0.6859     -0.0450     -0.0440      0.6271     -0.0000     -0.0000
        34         0.0000     -0.0000     -0.0000      0.0000      0.1414      0.0758
        35        -0.1573      0.5660      0.0276     -0.1212      0.0001      0.0000
        36         0.0000     -0.0002     -0.0000      0.0000      0.1417      0.0827
        37         0.0000      0.0000      0.0000      0.0000     -0.1414      0.0360
        38        -0.6074     -0.0366     -0.0852      0.1761      0.0000     -0.0000
        39         1.3301      0.0300     -0.0490     -0.0204     -0.0000      0.0000
        40        -0.0001     -0.0000     -0.0000     -0.0000     -0.0723      0.1299
        41         0.0001     -0.0000     -0.0000     -0.0001     -0.9301      0.1157
        42        -1.3407      0.0569      0.0387      1.1061      0.0000      0.0000
        43        -0.0004      0.0000      0.0000      0.0004      0.7665     -0.1821
        44         5.3720     -0.0635     -0.1673     -4.1875      0.0001     -0.0000
        45         0.0001     -0.0000     -0.0000     -0.0000      0.3267     -0.0263
        46        -2.6071     -0.3561     -0.0054      1.7069     -0.0000      0.0000
        47        -0.0000      0.0000     -0.0000      0.0000      0.2936     -0.0170
        48         0.0000     -0.0000     -0.0000     -0.0000      0.0225     -0.1240
        49         1.5937     -0.8635      0.0394      1.2145     -0.0000      0.0000
        50         0.3525      0.5277      0.0950     -1.4298     -0.0000     -0.0000
        51        -0.0001     -0.0001     -0.0000      0.0002     -0.1771     -0.0694
        52        -0.0001     -0.0000     -0.0000      0.0000      0.4991     -0.0620
        53         0.1908      0.3436     -0.0049     -0.5221      0.0000     -0.0000
        54        -0.0516      0.3301     -0.0118     -0.2740     -0.0000      0.0000
        55        -1.3825      0.0374      0.0588     -0.1582     -0.0000      0.0000
        56         1.6748     -0.0283     -0.0942      0.3140      0.0000      0.0000
        57        -0.0001     -0.0000      0.0000      0.0000     -0.1095      0.0378
        58        -2.0710     -0.2457     -0.0645      0.0490     -0.0001      0.0000
        59        -0.0000      0.0000     -0.0000     -0.0000     -0.0959      0.0240
        60         2.3647      0.0190      0.0299     -0.1457     -0.0000      0.0000
        61        -0.0000     -0.0000      0.0000     -0.0000      0.4483     -0.0287
        62         0.0001      0.0000     -0.0000      0.0000      0.0891      0.1829
        63         0.0000      0.0000      0.0000      0.0001      0.6417     -0.0997
        64         0.2135      0.0315      0.0192      0.3221     -0.0002     -0.0000
        65        -1.0148      0.0596     -0.0050      0.2203     -0.0000      0.0000
        66        -0.0001     -0.0000      0.0000      0.0000     -0.5725     -0.2158
        67         1.6453      0.3084     -0.0251     -1.2127     -0.0000      0.0000
        68         1.0711      0.5324      0.0396     -1.3253     -0.0000     -0.0000
        69         0.0001      0.0000     -0.0000     -0.0001      0.2759     -0.1117
        70         0.3684      0.1108     -0.0096     -0.3111     -0.0001      0.0000
        71         0.0000      0.0000     -0.0000     -0.0000      0.0925     -0.1342
        72         0.0000     -0.0000      0.0000      0.0000      0.2195     -0.0737
        73        -2.4037      0.1716      0.0342      1.3641     -0.0000      0.0000
        74         1.1217      0.0101     -0.1227     -2.5242      0.0000     -0.0000
        75        -0.0001     -0.0000      0.0000     -0.0000      0.7210     -0.0339
        76        -0.9115     -0.0143      0.0604      0.4789     -0.0000     -0.0000
[...]
 Alpha virt. eigenvalues --    2.35808   2.36609   2.37251   2.37299   2.38581
 Alpha virt. eigenvalues --    2.38838   2.38894   2.39531   2.39558   2.39669
 Alpha virt. eigenvalues --    2.39713   2.40171   2.40572   2.41110   2.41232
 Alpha virt. eigenvalues --    2.42353   2.42360   2.44026   2.44048   2.44316
 Alpha virt. eigenvalues --    2.44636   2.44940   2.45269   2.45556   2.45881
 Alpha virt. eigenvalues --    2.45884   2.46372   2.46538   2.47106   2.47751
 Alpha virt. eigenvalues --    2.48041   2.48222   2.48357   2.48757   2.48810
 Alpha virt. eigenvalues --    2.49638   2.49903   2.50642   2.50805   2.51177
 Alpha virt. eigenvalues --    2.51616   2.52225   2.52496   2.52682   2.53893
 Alpha virt. eigenvalues --    2.53914   2.54023   2.54615   2.54898   2.54990
 Alpha virt. eigenvalues --    2.55451   2.56895   2.57017   2.57697   2.57707
 Alpha virt. eigenvalues --    2.58258   2.58269   2.58624   2.59233   2.59243
 Alpha virt. eigenvalues --    2.59747   2.60047   2.60071   2.60455   2.60456
 Alpha virt. eigenvalues --    2.61093   2.61193   2.61919   2.62118   2.62358
 Alpha virt. eigenvalues --    2.62384   2.62931   2.62942   2.63905   2.63956
 Alpha virt. eigenvalues --    2.64009   2.64799   2.65177   2.65314   2.65420
 Alpha virt. eigenvalues --    2.65728   2.65774   2.65795   2.66684   2.66929
 Alpha virt. eigenvalues --    2.66978   2.67171   2.67182   2.67572   2.68160
 Alpha virt. eigenvalues --    2.68254   2.68308   2.68452   2.68685   2.68900
 Alpha virt. eigenvalues --    2.69464   2.69608   2.69664   2.70450   2.70930
 Alpha virt. eigenvalues --    2.71124   2.71137   2.71919   2.72455   2.72631
 Alpha virt. eigenvalues --    2.72894   2.73156   2.73473   2.73769   2.73795
 Alpha virt. eigenvalues --    2.74076   2.75191   2.75536   2.75550   2.75643
 Alpha virt. eigenvalues --    2.76349   2.76741   2.76931   2.77339   2.78000
 Alpha virt. eigenvalues --    2.78328   2.79435   2.79491   2.79691   2.80375
 Alpha virt. eigenvalues --    2.80430   2.80791   2.81118   2.81605   2.81676
 Alpha virt. eigenvalues --    2.81877   2.82203   2.82457   2.82830   2.82955
 Alpha virt. eigenvalues --    2.83535   2.83652   2.83714   2.83770   2.84155
 Alpha virt. eigenvalues --    2.84279   2.84440   2.84842   2.85350   2.85394
 Alpha virt. eigenvalues --    2.86030   2.86133   2.86352   2.86767   2.86859
 Alpha virt. eigenvalues --    2.87323   2.88226   2.88769   2.88830   2.89807
 Alpha virt. eigenvalues --    2.90099   2.90444   2.90704   2.90914   2.91138
 Alpha virt. eigenvalues --    2.91282   2.92328   2.92356   2.92780   2.92930
 Alpha virt. eigenvalues --    2.93042   2.93103   2.93602   2.93872   2.95176
 Alpha virt. eigenvalues --    2.95677   2.95998   2.96096   2.96361   2.96808
 Alpha virt. eigenvalues --    2.96809   2.97071   2.97361   2.97663   2.97709
 Alpha virt. eigenvalues --    2.98202   2.98567   2.99034   2.99072   2.99594
 Alpha virt. eigenvalues --    3.00093   3.00212   3.00450   3.00722   3.01171
 Alpha virt. eigenvalues --    3.02294   3.02334   3.02594   3.03291   3.03814
 Alpha virt. eigenvalues --    3.03841   3.04091   3.04244   3.04564   3.05792
 Alpha virt. eigenvalues --    3.05827   3.06132   3.06848   3.06959   3.07764
 Alpha virt. eigenvalues --    3.08449   3.08916   3.09592   3.09880   3.10446
 Alpha virt. eigenvalues --    3.10506   3.10796   3.10981   3.11025   3.11169
 Alpha virt. eigenvalues --    3.11647   3.11947   3.12413   3.12457   3.12849
 Alpha virt. eigenvalues --    3.13439   3.13827   3.13906   3.13995   3.14034
 Alpha virt. eigenvalues --    3.14339   3.15361   3.16007   3.16193   3.16553
 Alpha virt. eigenvalues --    3.16774   3.17274   3.17375   3.17540   3.17628
 Alpha virt. eigenvalues --    3.17760   3.17948   3.18325   3.18634   3.19183
 Alpha virt. eigenvalues --    3.19895   3.19920   3.20073   3.20184   3.20544
 Alpha virt. eigenvalues --    3.20561   3.21235   3.21346   3.21565   3.22215
 Alpha virt. eigenvalues --    3.22288   3.23051   3.23654   3.23699   3.24103
 Alpha virt. eigenvalues --    3.24128   3.24241   3.24246   3.24955   3.25116
 Alpha virt. eigenvalues --    3.25423   3.25770   3.26242   3.26358   3.26700
 Alpha virt. eigenvalues --    3.27260   3.27657   3.27959   3.27992   3.28423
 Alpha virt. eigenvalues --    3.28577   3.28700   3.28830   3.29290   3.29422
 Alpha virt. eigenvalues --    3.29515   3.30133   3.30394   3.30945   3.31016
 Alpha virt. eigenvalues --    3.31154   3.31753   3.32290   3.32459   3.32981
 Alpha virt. eigenvalues --    3.33125   3.33658   3.33697   3.33757   3.34112
 Alpha virt. eigenvalues --    3.34418   3.34595   3.34930   3.35178   3.35580
 Alpha virt. eigenvalues --    3.35722   3.35877   3.35884   3.36039   3.36371
 Alpha virt. eigenvalues --    3.36820   3.36833   3.37241   3.37521   3.37739
 Alpha virt. eigenvalues --    3.37822   3.38140   3.38869   3.38984   3.39243
 Alpha virt. eigenvalues --    3.39250   3.39412   3.39619   3.39695   3.40558
 Alpha virt. eigenvalues --    3.40586   3.41084   3.41388   3.41863   3.41877
 Alpha virt. eigenvalues --    3.41924   3.42397   3.42578   3.42802   3.42872
 Alpha virt. eigenvalues --    3.43214   3.43244   3.43763   3.44074   3.44372
 Alpha virt. eigenvalues --    3.44513   3.45425   3.45714   3.45837   3.45950
 Alpha virt. eigenvalues --    3.45960   3.46582   3.47120   3.47144   3.47347
 Alpha virt. eigenvalues --    3.47644   3.47910   3.47979   3.48417   3.49186
 Alpha virt. eigenvalues --    3.49538   3.49658   3.49900   3.50018   3.51079
 Alpha virt. eigenvalues --    3.51106   3.51496   3.51984   3.52238   3.53236
 Alpha virt. eigenvalues --    3.53481   3.53808   3.54656   3.54986   3.55942
 Alpha virt. eigenvalues --    3.56419   3.56499   3.56617   3.56808   3.56995
 Alpha virt. eigenvalues --    3.57014   3.57596   3.57966   3.58286   3.58552
 Alpha virt. eigenvalues --    3.59559   3.59687   3.60064   3.60439   3.60921
 Alpha virt. eigenvalues --    3.60923   3.61947   3.62111   3.62516   3.62561
 Alpha virt. eigenvalues --    3.62848   3.62865   3.63394   3.63735   3.63913
 Alpha virt. eigenvalues --    3.64211   3.64351   3.64915   3.65516   3.65830
 Alpha virt. eigenvalues --    3.65973   3.66759   3.67067   3.67556   3.68052
 Alpha virt. eigenvalues --    3.68283   3.68319   3.68688   3.68855   3.69234
 Alpha virt. eigenvalues --    3.70132   3.70251   3.70844   3.71055   3.72282
 Alpha virt. eigenvalues --    3.72296   3.72554   3.72666   3.73539   3.73952
 Alpha virt. eigenvalues --    3.75125   3.75261   3.76352   3.76586   3.77164
 Alpha virt. eigenvalues --    3.77457   3.77659   3.78754   3.78868   3.78952
 Alpha virt. eigenvalues --    3.79671   3.79830   3.80187   3.81338   3.81498
 Alpha virt. eigenvalues --    3.82046   3.82092   3.82513   3.82939   3.83267
 Alpha virt. eigenvalues --    3.83420   3.84326   3.85086   3.85435   3.86482
 Alpha virt. eigenvalues --    3.87114   3.87214   3.87749   3.88189   3.89619
 Alpha virt. eigenvalues --    3.89689   3.90229   3.90773   3.91034   3.91262
 Alpha virt. eigenvalues --    3.92463   3.93043   3.93161   3.93205   3.93336
 Alpha virt. eigenvalues --    3.94212   3.94577   3.95037   3.95728   3.96124
 Alpha virt. eigenvalues --    3.96204   3.96244   3.96756   3.97549   3.97557
 Alpha virt. eigenvalues --    3.98259   3.98523   3.99581   4.00219   4.01406
 Alpha virt. eigenvalues --    4.01516   4.02863   4.03327   4.04374   4.04487
 Alpha virt. eigenvalues --    4.04923   4.05252   4.05899   4.06194   4.06335
 Alpha virt. eigenvalues --    4.07279   4.08154   4.08217   4.08946   4.09504
 Alpha virt. eigenvalues --    4.09583   4.10264   4.10568   4.11450   4.13789
 Alpha virt. eigenvalues --    4.14159   4.14761   4.14984   4.15100   4.15617
 Alpha virt. eigenvalues --    4.18040   4.18051   4.18970   4.19107   4.20135
 Alpha virt. eigenvalues --    4.20544   4.20620   4.20799   4.20858   4.21500
 Alpha virt. eigenvalues --    4.22240   4.22887   4.23546   4.24903   4.25288
 Alpha virt. eigenvalues --    4.25492   4.26194   4.26674   4.27062   4.27332
 Alpha virt. eigenvalues --    4.28515   4.29335   4.30033   4.30322   4.30845
 Alpha virt. eigenvalues --    4.31001   4.31480   4.32022   4.32088   4.33101
 Alpha virt. eigenvalues --    4.33824   4.33847   4.34926   4.35272   4.36544
 Alpha virt. eigenvalues --    4.36698   4.37304   4.37522   4.37908   4.38906
 Alpha virt. eigenvalues --    4.39092   4.40090   4.40179   4.40716   4.40830
 Alpha virt. eigenvalues --    4.41253   4.42043   4.42114   4.42832   4.43691
 Alpha virt. eigenvalues --    4.43831   4.43997   4.45382   4.45435   4.45793
 Alpha virt. eigenvalues --    4.46460   4.46969   4.47589   4.47934   4.48575
 Alpha virt. eigenvalues --    4.48929   4.48961   4.49475   4.49630   4.51116
 Alpha virt. eigenvalues --    4.52405   4.52622   4.52717   4.53338   4.53367
 Alpha virt. eigenvalues --    4.53380   4.53827   4.54676   4.54956   4.55260
 Alpha virt. eigenvalues --    4.56631   4.57022   4.58046   4.58422   4.59134
 Alpha virt. eigenvalues --    4.59151   4.59669   4.60252   4.60373   4.61165
 Alpha virt. eigenvalues --    4.62442   4.62887   4.64582   4.65706   4.66762
 Alpha virt. eigenvalues --    4.67054   4.68670   4.68821   4.69779   4.70107
 Alpha virt. eigenvalues --    4.70735   4.70999   4.72477   4.73688   4.73787
 Alpha virt. eigenvalues --    4.74091   4.76185   4.77293   4.77521   4.78409
 Alpha virt. eigenvalues --    4.78625   4.79624   4.79944   4.80046   4.80157
 Alpha virt. eigenvalues --    4.81429   4.83259   4.85553   4.85795   4.87284
 Alpha virt. eigenvalues --    4.88066   4.88474   4.89079   4.91158   4.91676
 Alpha virt. eigenvalues --    4.92655   4.94442   4.95893   4.96433   4.97197
 Alpha virt. eigenvalues --    4.98007   5.00284   5.02825   5.03256   5.03497
 Alpha virt. eigenvalues --    5.04155   5.05178   5.05341   5.06802   5.07843
 Alpha virt. eigenvalues --    5.08177   5.09001   5.09460   5.11379   5.14837
 Alpha virt. eigenvalues --    5.15312   5.17062   5.17205   5.19216   5.19514
 Alpha virt. eigenvalues --    5.20917   5.22848   5.23454   5.24740   5.24807
 Alpha virt. eigenvalues --    5.25402   5.26481   5.27345   5.28681   5.29384
 Alpha virt. eigenvalues --    5.31038   5.32350   5.36701   5.36715   5.38596
 Alpha virt. eigenvalues --    5.39072   5.40486   5.41098   5.46532   5.48109
 Alpha virt. eigenvalues --    5.57916   5.61872   5.67450   5.67784   5.74466
 Alpha virt. eigenvalues --    5.74952   5.76310   5.77098  22.37809  22.45449
 Alpha virt. eigenvalues --   22.45582  22.47075  22.47276  22.48395  22.48565
 Alpha virt. eigenvalues --   22.48655  22.51642  22.51825  22.56353  22.56419
 Alpha virt. eigenvalues --   22.59032  22.59186  22.59700  22.62967  22.63543
 Alpha virt. eigenvalues --   22.64813  22.65792  22.66255  22.67630  22.74686
 Alpha virt. eigenvalues --   22.75968  22.76573  22.77295  22.77617  22.82224
 Alpha virt. eigenvalues --   22.83644  22.85059  22.85647  22.86222  22.87538
 Alpha virt. eigenvalues --   22.91829  22.92645  23.09259  23.14307  23.19131
 Alpha virt. eigenvalues --   23.20953  23.37991  23.37995
          Condensed to atoms (all electrons):
 Mulliken charges:
               1
     1  C   -0.244779
     2  C   -0.232456
     3  C   -0.224578
     4  C    0.073046
     5  C   -0.092007
     6  C    0.101772
     7  C   -0.145644
     8  C   -0.204882
     9  C    0.036129
    10  C   -0.187359
    11  C   -0.154937
    12  C   -0.218859
    13  C    0.077374
    14  C   -0.165438
    15  C   -0.179808
    16  C   -0.179809
    17  C   -0.165438
    18  C    0.077374
    19  C   -0.218859
    20  C   -0.154937
    21  C   -0.187359
    22  C    0.036128
    23  C   -0.204881
    24  C   -0.145644
    25  C   -0.092007
    26  C    0.101772
    27  C   -0.432107
    28  C   -0.436427
    29  C   -0.476535
    30  C   -0.244779
    31  C   -0.232456
    32  C   -0.224578
    33  C    0.073045
    34  C   -0.432106
    35  C   -0.436427
    36  C   -0.476536
    37  C   -0.458750
    38  C   -0.451555
    39  C   -0.451555
    40  C   -0.458750
    41  H    0.115737
    42  H    0.127500
    43  H    0.124541
    44  H    0.116572
    45  H    0.131318
    46  H    0.137594
    47  H    0.171022
    48  H    0.159066
    49  H    0.146922
    50  H    0.165623
    51  H    0.149218
    52  H    0.150667
    53  H    0.147400
    54  H    0.147400
    55  H    0.150667
    56  H    0.149218
    57  H    0.165624
    58  H    0.146922
    59  H    0.159066
    60  H    0.171023
    61  H    0.135254
    62  H    0.135163
    63  H    0.133105
    64  H    0.133942
    65  H    0.134187
    66  H    0.135244
    67  H    0.150523
    68  H    0.150229
    69  H    0.158992
    70  H    0.127499
    71  H    0.115737
    72  H    0.124542
    73  H    0.116572
    74  H    0.131318
    75  H    0.137594
    76  H    0.135163
    77  H    0.133104
    78  H    0.135254
    79  H    0.133943
    80  H    0.134187
    81  H    0.135243
    82  H    0.150523
    83  H    0.150229
    84  H    0.158992
    85  H    0.152919
    86  H    0.148222
    87  H    0.153221
    88  H    0.152499
    89  H    0.148693
    90  H    0.152425
    91  H    0.152425
    92  H    0.152499
    93  H    0.148693
    94  H    0.148223
    95  H    0.153221
    96  H    0.152919
 Sum of Mulliken charges =  -0.00000
 Mulliken charges with hydrogens summed into heavy atoms:
               1
     1  C   -0.001543
     2  C    0.008657
     3  C    0.044334
     4  C    0.073046
     5  C   -0.092007
     6  C    0.101772
     7  C    0.025379
     8  C   -0.045816
     9  C    0.036129
    10  C   -0.040437
    11  C    0.010686
    12  C   -0.069641
    13  C    0.077374
    14  C   -0.014771
    15  C   -0.032409
    16  C   -0.032409
    17  C   -0.014771
    18  C    0.077374
    19  C   -0.069641
    20  C    0.010686
    21  C   -0.040436
    22  C    0.036128
    23  C   -0.045815
    24  C    0.025379
    25  C   -0.092007
    26  C    0.101772
    27  C   -0.028585
    28  C   -0.033054
    29  C   -0.016791
    30  C   -0.001543
    31  C    0.008658
    32  C    0.044334
    33  C    0.073045
    34  C   -0.028584
    35  C   -0.033054
    36  C   -0.016792
    37  C   -0.004387
    38  C    0.002062
    39  C    0.002062
    40  C   -0.004387
 Electronic spatial extent (au):  <R**2>=         104493.2363
 Charge=             -0.0000 electrons
 Dipole moment (field-independent basis, Debye):
    X=              0.0000    Y=             -0.0000    Z=             -0.5197  Tot=              0.5197
 Quadrupole moment (field-independent basis, Debye-Ang):
   XX=           -160.8687   YY=           -229.0717   ZZ=           -264.7264
   XY=            -15.9742   XZ=             -0.0002   YZ=              0.0000
 Traceless Quadrupole moment (field-independent basis, Debye-Ang):
   XX=             57.3536   YY=            -10.8495   ZZ=            -46.5041
   XY=            -15.9742   XZ=             -0.0002   YZ=              0.0000
 Octapole moment (field-independent basis, Debye-Ang**2):
  XXX=              0.0057  YYY=              0.0002  ZZZ=             -7.1262  XYY=              0.0002
  XXY=             -0.0005  XXZ=            -90.6163  XZZ=              0.0001  YZZ=             -0.0000
  YYZ=              0.4777  XYZ=             11.3148
 Hexadecapole moment (field-independent basis, Debye-Ang**3):
 XXXX=        -118289.6901 YYYY=          -4078.4313 ZZZZ=           -863.9167 XXXY=          -2043.8220
 XXXZ=             -0.0342 YYYX=           -220.2705 YYYZ=             -0.0001 ZZZX=             -0.0016
 ZZZY=             -0.0000 XXYY=         -23193.8698 XXZZ=         -24595.6868 YYZZ=           -850.1699
 XXYZ=              0.0039 YYXZ=              0.0001 ZZXY=            -35.5384
 N-N= 3.637152187714D+03 E-N=-1.088355215692D+04  KE= 1.548879760587D+03
 Unable to Open any file for archive entry.
 1\1\GINC-CN10\SP\RCAM-B3LYP TD-FC\def2TZVP\C40H56\2100011873\04-Nov-20
 23\0\\# td=(nstates=150) CAM-b3lyp/def2TZVP scrf(smd, solvent=ethanol)
 \\B-1\\0,1\C,0,-13.193247,-1.96518,0.357514\C,0,-14.150234,-1.366297,-
 0.666837\C,0,-14.19793,0.145886,-0.469985\C,0,-12.839886,0.781119,-0.2
 65942\C,0,-11.699193,0.069117,-0.020535\C,0,-11.734254,-1.463294,0.197
 94\C,0,-10.43464,0.808638,0.027915\C,0,-9.147698,0.368486,0.051934\C,0
 ,-7.970978,1.218813,0.064023\C,0,-6.738479,0.618773,0.069992\C,0,-5.44
 5845,1.238015,0.078209\C,0,-4.280328,0.525977,0.08121\C,0,-2.942601,1.
 063627,0.086009\C,0,-1.885522,0.185039,0.0869\C,0,-0.488362,0.47987,0.
 088382\C,0,0.488364,-0.479879,0.088381\C,0,1.885523,-0.185049,0.086901
 \C,0,2.942603,-1.063636,0.08601\C,0,4.28033,-0.525984,0.08121\C,0,5.44
 5847,-1.238022,0.078205\C,0,6.73848,-0.618778,0.069986\C,0,7.97098,-1.
 218816,0.064016\C,0,9.147699,-0.368486,0.051926\C,0,10.434641,-0.80863
 6,0.027911\C,0,11.699193,-0.069112,-0.020539\C,0,11.734248,1.463299,0.
 197935\C,0,-11.0146,-1.853868,1.513234\C,0,-11.087577,-2.209256,-0.996
 377\C,0,-12.878927,2.293643,-0.398885\C,0,13.193238,1.965187,0.357525\
 C,0,14.150237,1.366308,-0.666817\C,0,14.197934,-0.145875,-0.469969\C,0
 ,12.839889,-0.781111,-0.265939\C,0,11.014576,1.85387,1.51322\C,0,11.08
 7582,2.209257,-0.996389\C,0,12.878932,-2.293635,-0.398883\C,0,8.156563
 ,-2.71718,0.068498\C,0,2.769507,-2.564242,0.088788\C,0,-2.769504,2.564
 233,0.08879\C,0,-8.156557,2.717177,0.068503\H,0,-13.55224,-1.704444,1.
 363722\H,0,-13.191791,-3.061587,0.302962\H,0,-15.153148,-1.798268,-0.5
 63053\H,0,-13.813091,-1.597755,-1.685187\H,0,-14.836732,0.392637,0.395
 545\H,0,-14.68517,0.631298,-1.328645\H,0,-10.553209,1.886254,-0.000126
 \H,0,-8.931571,-0.694424,0.048253\H,0,-6.727188,-0.472294,0.066595\H,0
 ,-5.39419,2.323329,0.080545\H,0,-4.354073,-0.562407,0.078511\H,0,-2.13
 6434,-0.876729,0.085263\H,0,-0.172471,1.5217,0.088524\H,0,0.172472,-1.
 521709,0.088521\H,0,2.136435,0.87672,0.085267\H,0,4.354074,0.5624,0.07
 8514\H,0,5.394193,-2.323335,0.080538\H,0,6.727188,0.472289,0.066588\H,
 0,8.931568,0.694423,0.04824\H,0,10.553213,-1.886252,-0.000123\H,0,-11.
 41656,-1.280584,2.356412\H,0,-11.183965,-2.918133,1.720013\H,0,-9.9361
 6,-1.690871,1.488587\H,0,-10.062275,-1.88498,-1.187807\H,0,-11.067226,
 -3.288779,-0.800274\H,0,-11.653135,-2.045583,-1.919919\H,0,-13.913764,
 2.64896,-0.350635\H,0,-12.32451,2.809583,0.392139\H,0,-12.468777,2.633
 235,-1.360075\H,0,13.19178,3.061594,0.302976\H,0,13.552222,1.70445,1.3
 63737\H,0,15.153149,1.798281,-0.563022\H,0,13.813104,1.597768,-1.68517
 \H,0,14.836727,-0.392627,0.395567\H,0,14.685183,-0.631285,-1.328625\H,
 0,11.183932,2.918136,1.719999\H,0,9.936137,1.690867,1.488558\H,0,11.41
 6527,1.280589,2.356403\H,0,10.062283,1.884978,-1.18783\H,0,11.067226,3
 .288781,-0.800288\H,0,11.65315,2.045585,-1.919926\H,0,13.913771,-2.648
 951,-0.350639\H,0,12.324521,-2.809577,0.392144\H,0,12.468777,-2.633229
 ,-1.360071\H,0,8.744087,-3.036457,0.93873\H,0,7.209146,-3.257946,0.093
 047\H,0,8.704221,-3.047232,-0.823677\H,0,3.248036,-3.011075,0.969534\H
 ,0,1.72147,-2.868026,0.092705\H,0,3.242385,-3.013831,-0.793611\H,0,-3.
 242396,3.013825,-0.7936\H,0,-3.248019,3.011063,0.969546\H,0,-1.721466,
 2.868016,0.092692\H,0,-7.20914,3.257941,0.093061\H,0,-8.704208,3.04723
 ,-0.823677\H,0,-8.744089,3.036455,0.93873\\Version=ES64L-G16RevC.02\St
 ate=1-A\HF=-1557.5199347\RMSD=5.620e-09\PG=C01 [X(C40H56)]\\@
 The archive entry for this job was punched.


 WE SHOULD BE CAREFUL TO GET OUT OF AN EXPERIENCE ONLY THE WISDOM
 THAT IS IN IT -- AND STOP THERE;
 LEST WE BE LIKE THE CAT THAT SITS DOWN ON A HOT STOVE-LID.
 SHE WILL NEVER SIT DOWN ON A HOT STOVE LID AGAIN;
 BUT ALSO SHE WILL NEVER SIT DOWN ON A COLD ONE ANY MORE.

                                                     -- MARK TWAIN
 Job cpu time:       8 days  4 hours 22 minutes 52.4 seconds.
 Elapsed time:       0 days  6 hours 37 minutes 10.9 seconds.
 File lengths (MBytes):  RWF=  94400 Int=      0 D2E=      0 Chk=  10128 Scr=     32
 Normal termination of Gaussian 16 at Sat Nov  4 09:22:29 2023.
