 Entering Gaussian System, Link 0=g16
 Initial command:
 /nfs-share/home/2100011873/Gaussian16_AVX2/g16/l1.exe "/nfs-share/home/2100011873/GaussTmp/Gau-172962.inp" -scrdir="/nfs-share/home/2100011873/GaussTmp/"
 Entering Link 1 = /nfs-share/home/2100011873/Gaussian16_AVX2/g16/l1.exe PID=    172963.
  
 Copyright (c) 1988-2021, Gaussian, Inc.  All Rights Reserved.
  
 This is part of the Gaussian(R) 16 program.  It is based on
 the Gaussian(R) 09 system (copyright 2009, Gaussian, Inc.),
 the Gaussian(R) 03 system (copyright 2003, Gaussian, Inc.),
 the Gaussian(R) 98 system (copyright 1998, Gaussian, Inc.),
 the Gaussian(R) 94 system (copyright 1995, Gaussian, Inc.),
 the Gaussian 92(TM) system (copyright 1992, Gaussian, Inc.),
 the Gaussian 90(TM) system (copyright 1990, Gaussian, Inc.),
 the Gaussian 88(TM) system (copyright 1988, Gaussian, Inc.),
 the Gaussian 86(TM) system (copyright 1986, Carnegie Mellon
 University), and the Gaussian 82(TM) system (copyright 1983,
 Carnegie Mellon University). Gaussian is a federally registered
 trademark of Gaussian, Inc.
  
 This software contains proprietary and confidential information,
 including trade secrets, belonging to Gaussian, Inc.
  
 This software is provided under written license and may be
 used, copied, transmitted, or stored only in accord with that
 written license.
  
 The following legend is applicable only to US Government
 contracts under FAR:
  
                    RESTRICTED RIGHTS LEGEND
  
 Use, reproduction and disclosure by the US Government is
 subject to restrictions as set forth in subparagraphs (a)
 and (c) of the Commercial Computer Software - Restricted
 Rights clause in FAR 52.227-19.
  
 Gaussian, Inc.
 340 Quinnipiac St., Bldg. 40, Wallingford CT 06492
  
  
 ---------------------------------------------------------------
 Warning -- This program may not be used in any manner that
 competes with the business of Gaussian, Inc. or will provide
 assistance to any competitor of Gaussian, Inc.  The licensee
 of this program is prohibited from giving any competitor of
 Gaussian, Inc. access to this program.  By using this program,
 the user acknowledges that Gaussian, Inc. is engaged in the
 business of creating and licensing software in the field of
 computational chemistry and represents and warrants to the
 licensee that it is not a competitor of Gaussian, Inc. and that
 it will not use this program in any manner prohibited above.
 ---------------------------------------------------------------
  

 Cite this work as:
 Gaussian 16, Revision C.02,
 M. J. Frisch, G. W. Trucks, H. B. Schlegel, G. E. Scuseria, 
 M. A. Robb, J. R. Cheeseman, G. Scalmani, V. Barone, 
 G. A. Petersson, H. Nakatsuji, X. Li, M. Caricato, A. V. Marenich, 
 J. Bloino, B. G. Janesko, R. Gomperts, B. Mennucci, H. P. Hratchian, 
 J. V. Ortiz, A. F. Izmaylov, J. L. Sonnenberg, D. Williams-Young, 
 F. Ding, F. Lipparini, F. Egidi, J. Goings, B. Peng, A. Petrone, 
 T. Henderson, D. Ranasinghe, V. G. Zakrzewski, J. Gao, N. Rega, 
 G. Zheng, W. Liang, M. Hada, M. Ehara, K. Toyota, R. Fukuda, 
 J. Hasegawa, M. Ishida, T. Nakajima, Y. Honda, O. Kitao, H. Nakai, 
 T. Vreven, K. Throssell, J. A. Montgomery, Jr., J. E. Peralta, 
 F. Ogliaro, M. J. Bearpark, J. J. Heyd, E. N. Brothers, K. N. Kudin, 
 V. N. Staroverov, T. A. Keith, R. Kobayashi, J. Normand, 
 K. Raghavachari, A. P. Rendell, J. C. Burant, S. S. Iyengar, 
 J. Tomasi, M. Cossi, J. M. Millam, M. Klene, C. Adamo, R. Cammi, 
 J. W. Ochterski, R. L. Martin, K. Morokuma, O. Farkas, 
 J. B. Foresman, and D. J. Fox, Gaussian, Inc., Wallingford CT, 2019.
 
 ******************************************
 Gaussian 16:  ES64L-G16RevC.02  7-Dec-2021
                 4-Nov-2023 
 ******************************************
 %nprocshared=32
 Will use up to   32 processors via shared memory.
 %mem=128GB
 ----------------------------------------------------------------
 # td=(nstates=150) CAM-b3lyp/def2TZVP scrf(smd, solvent=ethanol)
 ----------------------------------------------------------------
 1/38=1,172=1/1;
 2/12=2,17=6,18=5,40=1/2;
 3/5=44,7=101,11=9,25=1,30=1,70=32201,72=4,74=-40/1,2,3,8;
 4//1;
 5/5=2,38=5,53=4/2;
 8/6=1,10=1,108=150/1;
 9/41=150,42=1,70=2/14;
 6/7=2,8=2,9=2,10=2/1;
 99/5=1,9=1/99;
 ---
 A-3
 ---
 Symbolic Z-matrix:
 Charge =  1 Multiplicity = 1
 C                    -2.42804   1.06652  -0.25318 
 C                    -1.1637    0.47934  -0.18892 
 C                     0.04181   1.17392  -0.25682 
 C                     1.28645   0.54133  -0.18105 
 C                    -3.63236   0.36093  -0.1721 
 S                    -3.73168  -1.38124   0.07285 
 C                    -5.49238  -1.31615   0.07935 
 C                    -5.93741   0.00252  -0.10246 
 N                    -4.87873   0.90962  -0.26159 
 C                    -6.38635  -2.37119   0.2407 
 C                    -7.75121  -2.08525   0.22361 
 C                    -8.20176  -0.77041   0.05133 
 C                    -7.30699   0.28573  -0.11153 
 C                    -5.10928   2.34993  -0.47364 
 C                    -5.16458   3.14278   0.83325 
 C                     2.49951   1.22923  -0.20369 
 C                     3.82211   0.76406  -0.12709 
 S                     5.094     1.94419   0.17203 
 C                     6.32618   0.69371   0.14037 
 C                     5.74078  -0.56156  -0.08827 
 N                     4.34645  -0.48864  -0.25638 
 C                     7.70209   0.835     0.30955 
 C                     8.49306  -0.31093   0.25083 
 C                     7.91391  -1.56717   0.0283 
 C                     6.53827  -1.70957  -0.14233 
 C                     3.57345  -1.67863  -0.65124 
 C                     3.11126  -2.52211   0.53872 
 H                    -2.48023   2.14497  -0.35954 
 H                    -1.10176  -0.60405  -0.07596 
 H                     0.0149    2.25675  -0.37062 
 H                     1.27116  -0.53799  -0.0619 
 H                    -6.03096  -3.38737   0.37793 
 H                    -8.46785  -2.89048   0.34879 
 H                    -9.26727  -0.56388   0.04669 
 H                    -7.67556   1.29813  -0.23269 
 H                    -4.32099   2.71824  -1.13381 
 H                    -6.04347   2.44228  -1.03182 
 H                    -4.22182   3.06671   1.38368 
 H                    -5.35038   4.19921   0.61452 
 H                    -5.96892   2.78077   1.48096 
 H                     2.42607   2.31429  -0.22968 
 H                     8.14445   1.81075   0.48253 
 H                     9.56705  -0.22672   0.38161 
 H                     8.54404  -2.45003  -0.00972 
 H                     6.10878  -2.69179  -0.30376 
 H                     2.73549  -1.33414  -1.25947 
 H                     4.21609  -2.26429  -1.31381 
 H                     3.96372  -2.88406   1.12125 
 H                     2.46478  -1.9518    1.21298 
 H                     2.55269  -3.3918    0.17731 
 
                          Input orientation:                          
 ---------------------------------------------------------------------
 Center     Atomic      Atomic             Coordinates (Angstroms)
 Number     Number       Type             X           Y           Z
 ---------------------------------------------------------------------
      1          6           0       -2.428041    1.066524   -0.253176
      2          6           0       -1.163701    0.479343   -0.188922
      3          6           0        0.041805    1.173916   -0.256816
      4          6           0        1.286450    0.541332   -0.181046
      5          6           0       -3.632364    0.360929   -0.172103
      6         16           0       -3.731682   -1.381240    0.072853
      7          6           0       -5.492381   -1.316150    0.079346
      8          6           0       -5.937414    0.002523   -0.102460
      9          7           0       -4.878726    0.909623   -0.261587
     10          6           0       -6.386349   -2.371189    0.240698
     11          6           0       -7.751214   -2.085245    0.223608
     12          6           0       -8.201765   -0.770406    0.051330
     13          6           0       -7.306986    0.285734   -0.111525
     14          6           0       -5.109277    2.349928   -0.473641
     15          6           0       -5.164583    3.142776    0.833251
     16          6           0        2.499506    1.229230   -0.203687
     17          6           0        3.822110    0.764058   -0.127091
     18         16           0        5.094002    1.944187    0.172030
     19          6           0        6.326179    0.693711    0.140374
     20          6           0        5.740783   -0.561555   -0.088266
     21          7           0        4.346445   -0.488644   -0.256376
     22          6           0        7.702092    0.835001    0.309547
     23          6           0        8.493059   -0.310930    0.250826
     24          6           0        7.913914   -1.567173    0.028296
     25          6           0        6.538273   -1.709565   -0.142327
     26          6           0        3.573454   -1.678630   -0.651238
     27          6           0        3.111260   -2.522112    0.538719
     28          1           0       -2.480232    2.144966   -0.359543
     29          1           0       -1.101764   -0.604050   -0.075964
     30          1           0        0.014895    2.256753   -0.370616
     31          1           0        1.271155   -0.537990   -0.061902
     32          1           0       -6.030956   -3.387372    0.377927
     33          1           0       -8.467850   -2.890478    0.348789
     34          1           0       -9.267265   -0.563876    0.046694
     35          1           0       -7.675558    1.298131   -0.232690
     36          1           0       -4.320988    2.718242   -1.133807
     37          1           0       -6.043470    2.442277   -1.031819
     38          1           0       -4.221825    3.066705    1.383681
     39          1           0       -5.350379    4.199206    0.614515
     40          1           0       -5.968923    2.780771    1.480961
     41          1           0        2.426074    2.314290   -0.229676
     42          1           0        8.144449    1.810753    0.482525
     43          1           0        9.567045   -0.226720    0.381606
     44          1           0        8.544040   -2.450028   -0.009720
     45          1           0        6.108776   -2.691785   -0.303762
     46          1           0        2.735494   -1.334144   -1.259472
     47          1           0        4.216087   -2.264286   -1.313807
     48          1           0        3.963720   -2.884064    1.121248
     49          1           0        2.464779   -1.951800    1.212975
     50          1           0        2.552692   -3.391803    0.177306
 ---------------------------------------------------------------------
                    Distance matrix (angstroms):
                    1          2          3          4          5
     1  C    0.000000
     2  C    1.395516   0.000000
     3  C    2.472182   1.392941   0.000000
     4  C    3.752129   2.450948   1.398229   0.000000
     5  C    1.398153   2.471559   3.763993   4.922129   0.000000
     6  S    2.792369   3.181952   4.569104   5.379814   1.762107
     7  C    3.895881   4.693957   6.077882   7.033533   2.517039
     8  C    3.670220   4.798246   6.094838   7.244357   2.333787
     9  N    2.455717   3.740566   4.927626   6.176692   1.364731
    10  C    5.265927   5.965413   7.357748   8.217815   3.901193
    11  C    6.204606   7.081145   8.460738   9.420298   4.806795
    12  C    6.066541   7.152198   8.475364   9.581278   4.712671
    13  C    4.943056   6.146822   7.403695   8.597517   3.675890
    14  C    2.980731   4.375811   5.288068   6.652966   2.495659
    15  C    3.602750   4.913835   5.671960   7.029377   3.331232
    16  C    4.930481   3.739202   2.458897   1.394712   6.193123
    17  C    6.258736   4.994316   3.804671   2.545995   7.465502
    18  S    7.585000   6.436995   5.128540   4.073097   8.875505
    19  C    8.770988   7.500179   6.315197   5.052267   9.969000
    20  C    8.331118   6.983230   5.959750   4.589777   9.418805
    21  N    6.950699   5.594931   4.614546   3.229566   8.024355
    22  C   10.148392   8.886915   7.688669   6.441070  11.354586
    23  C   11.019157   9.699017   8.595706   7.269668  12.151385
    24  C   10.675749   9.307981   8.340561   6.957938  11.707872
    25  C    9.386892   8.007115   7.108563   5.713990  10.379291
    26  C    6.611525   5.226014   4.556877   3.221754   7.504211
    27  C    6.647500   5.273849   4.869810   3.637675   7.368423
    28  H    1.084931   2.129945   2.704471   4.097731   2.131978
    29  H    2.140381   1.091025   2.121702   2.650756   2.710049
    30  H    2.719995   2.140394   1.089133   2.143702   4.115344
    31  H    4.036719   2.641898   2.116581   1.085986   4.986451
    32  H    5.763374   6.242033   7.621461   8.324157   4.483920
    33  H    7.245655   8.061974   9.449883  10.353956   5.850205
    34  H    7.037266   8.173834   9.474747  10.613871   5.714477
    35  H    5.252666   6.563277   7.718400   8.994054   4.150836
    36  H    2.662129   3.984211   4.710416   6.090160   2.637423
    37  H    3.945923   5.326888   6.264179   7.620048   3.299175
    38  H    3.146059   4.303446   4.944939   6.258352   3.176343
    39  H    4.371115   5.657841   6.243977   7.619741   4.278167
    40  H    4.299270   5.583479   6.459931   7.772888   3.748035
    41  H    5.011976   4.031771   2.643091   2.108195   6.365815
    42  H   10.624155   9.426831   8.161190   7.005991  11.883764
    43  H   12.081288  10.769073   9.648811   8.335151  13.224081
    44  H   11.524408  10.141675   9.245649   7.851764  12.497706
    45  H    9.327630   7.934618   7.194024   5.807145  10.209124
    46  H    5.782554   4.431539   3.814662   2.603870   6.678717
    47  H    7.507574   6.142881   5.510272   4.211581   8.354246
    48  H    7.638769   6.270526   5.809275   4.538401   8.360815
    49  H    5.932922   4.587117   4.219146   3.089897   6.666507
    50  H    6.698485   5.378798   5.228652   4.147449   7.242928
                    6          7          8          9         10
     6  S    0.000000
     7  C    1.761914   0.000000
     8  C    2.609749   1.403569   0.000000
     9  N    2.583721   2.333854   1.403201   0.000000
    10  C    2.838209   1.392236   2.440043   3.645400   0.000000
    11  C    4.083502   2.390532   2.784774   4.178018   1.394601
    12  C    4.511676   2.763943   2.397573   3.736710   2.427777
    13  C    3.949126   2.428015   1.398577   2.511614   2.833880
    14  C    4.014728   3.727290   2.516723   1.473974   4.942685
    15  C    4.806052   4.534076   3.366602   2.503469   5.678701
    16  C    6.761563   8.392218   8.526235   7.385378   9.597860
    17  C    7.855066   9.546184   9.789221   8.703093  10.685396
    18  S    9.431914  11.077450  11.204354  10.035619  12.264813
    19  C   10.269886  11.988395  12.285456  11.214191  13.077157
    20  C    9.509229  11.259728  11.691821  10.722331  12.265819
    21  N    8.133957   9.879270  10.296732   9.330539  10.907975
    22  C   11.648989  13.370660  13.671097  12.593996  14.448826
    23  C   12.272796  14.022568  14.438200  13.437148  15.021370
    24  C   11.647165  13.408742  13.940600  13.033426  14.324422
    25  C   10.277455  12.039126  12.592680  11.714189  12.947212
    26  C    7.346956   9.102445   9.673885   8.848177  10.023615
    27  C    6.953019   8.699885   9.416124   8.732535   9.503482
    28  H    3.766593   4.609229   4.075323   2.699711   6.001141
    29  H    2.746387   4.450699   4.873617   4.073218   5.581209
    30  H    5.241040   6.580136   6.370514   5.076827   7.922593
    31  H    5.075195   6.809618   7.228919   6.321115   7.879692
    32  H    3.066643   2.160827   3.425042   4.494528   1.085248
    33  H    4.978476   3.377058   3.869908   5.262617   2.148020
    34  H    5.595663   3.849251   3.380971   4.639559   3.406420
    35  H    4.777713   3.420248   2.171798   2.823835   3.917916
    36  H    4.313822   4.372667   3.324401   2.083973   5.661916
    37  H    4.602602   3.957797   2.612921   2.073382   4.990623
    38  H    4.662909   4.746053   3.813276   2.791313   5.963411
    39  H    5.835662   5.543079   4.297768   3.436767   6.662062
    40  H    4.930553   4.356189   3.197949   2.779604   5.315561
    41  H    7.187936   8.716508   8.678040   7.438697   9.991685
    42  H   12.304436  13.996543  14.209531  13.075505  15.122540
    43  H   13.352318  15.101806  15.513708  14.504664  16.097496
    44  H   12.322438  14.082426  14.687958  13.839123  14.932697
    45  H    9.934484  11.688712  12.345465  11.562747  12.511090
    46  H    6.603156   8.336107   8.851254   8.000413   9.302365
    47  H    8.116011   9.853638  10.473747   9.690020  10.716322
    48  H    7.910551   9.641668  10.385678   9.720758  10.400112
    49  H    6.326258   8.062603   8.726202   8.018051   8.914240
    50  H    6.598987   8.309099   9.147766   8.597724   8.997340
                   11         12         13         14         15
    11  C    0.000000
    12  C    1.400528   0.000000
    13  C    2.435404   1.393766   0.000000
    14  C    5.209294   4.424428   3.036766   0.000000
    15  C    5.864685   5.014865   3.693938   1.529586   0.000000
    16  C   10.781725  10.889480   9.852206   7.695610   7.967130
    17  C   11.924066  12.122705  11.139381   9.077706   9.345652
    18  S   13.462487  13.570593  12.514606  10.231736  10.349512
    19  C   14.349304  14.601806  13.641594  11.571073  11.769265
    20  C   13.581343  13.944811  13.075271  11.240509  11.554145
    21  N   12.211997  12.555144  11.680030   9.874987  10.238855
    22  C   15.727043  15.986766  15.025026  12.924379  13.082485
    23  C   16.340910  16.702337  15.815459  13.879069  14.099592
    24  C   15.674909  16.135380  15.333904  13.608789  13.924032
    25  C   14.299108  14.771196  13.988330  12.339152  12.706447
    26  C   11.365685  11.831072  11.069507   9.573434  10.089745
    27  C   10.875821  11.458209  10.809564   9.609312  10.033309
    28  H    6.783657   6.434606   5.178398   2.639490   3.102277
    29  H    6.819008   7.103090   6.268793   4.994426   5.601060
    30  H    8.917314   8.766712   7.586962   5.126054   5.390856
    31  H    9.158529   9.476447   8.617743   7.015662   7.467802
    32  H    2.163016   3.415785   3.919123   5.872927   6.603087
    33  H    1.085190   2.157310   3.412890   6.278396   6.895392
    34  H    2.155058   1.085342   2.142327   5.103907   5.584795
    35  H    3.414845   2.153232   1.084193   2.783906   3.293014
    36  H    6.056609   5.351228   3.984763   1.092188   2.182017
    37  H    4.999094   4.019052   2.663474   1.092157   2.177528
    38  H    6.351767   5.686695   4.414483   2.179676   1.094327
    39  H    6.738779   5.757137   4.435167   2.159176   1.094719
    40  H    5.332505   4.431736   3.248328   2.178322   1.094321
    41  H   11.096782  11.070017   9.942910   7.539384   7.709363
    42  H   16.368199  16.554366  15.537871  13.299106  13.380121
    43  H   17.418415  17.780194  16.889012  14.925314  15.118808
    44  H   16.301006  16.829939  16.085701  14.479912  14.829579
    45  H   13.883275  14.443316  13.743553  12.300099  12.744549
    46  H   10.617661  11.029943  10.236855   8.702319   9.318450
    47  H   12.066979  12.581666  11.862938  10.438355  11.038258
    48  H   11.776398  12.394003  11.772687  10.595170  10.942196
    49  H   10.264656  10.794456  10.111788   8.872196   9.181833
    50  H   10.386516  11.070047  10.527153   9.596717  10.133475
                   16         17         18         19         20
    16  C    0.000000
    17  C    1.404113   0.000000
    18  S    2.717303   1.760650   0.000000
    19  C    3.879251   2.519295   1.755834   0.000000
    20  C    3.704876   2.332394   2.600927   1.403801   0.000000
    21  N    2.522905   1.364150   2.580899   2.339812   1.406327
    22  C    5.242683   3.905118   2.837488   1.393456   2.440360
    23  C    6.204946   4.807929   4.079871   2.390998   2.784389
    24  C    6.098319   4.711862   4.505798   2.764970   2.397364
    25  C    4.995190   3.673770   3.941401   2.429123   1.398871
    26  C    3.131983   2.510634   4.014304   3.719159   2.502421
    27  C    3.872722   3.427466   4.900363   4.564636   3.339354
    28  H    5.065635   6.456040   7.595519   8.939180   8.659326
    29  H    4.043065   5.110662   6.703919   7.543562   6.842690
    30  H    2.693875   4.096624   5.117567   6.522003   6.388143
    31  H    2.156853   2.864777   4.563999   5.206848   4.469768
    32  H    9.716999  10.703846  12.338258  13.015777  12.115132
    33  H   11.728603  12.830636  14.398926  15.223441  14.404866
    34  H   11.905243  13.157711  14.579166  15.644354  15.008655
    35  H   10.175339  11.510550  12.792296  14.019741  13.545387
    36  H    7.042827   8.434593   9.536583  10.912581  10.634353
    37  H    8.668317  10.048115  11.213413  12.547499  12.197619
    38  H    7.146492   8.502324   9.461119  10.882890  10.704413
    39  H    8.432728   9.822666  10.694204  12.200628  12.090187
    40  H    8.772663  10.125082  11.171458  12.542828  12.278063
    41  H    1.087852   2.088698   2.723267   4.239579   4.390647
    42  H    5.716156   4.488855   3.069110   2.161239   3.425092
    43  H    7.239645   5.851896   4.976432   3.377662   3.869519
    44  H    7.078909   5.713208   5.589716   3.850264   3.380939
    45  H    5.330216   4.147638   4.769526   3.421418   2.172496
    46  H    2.782312   2.620205   4.284765   4.354857   3.316682
    47  H    4.047675   3.276336   4.548592   3.913678   2.593442
    48  H    4.562736   3.858393   5.048818   4.398159   3.164637
    49  H    3.482397   3.318736   4.814052   4.802042   3.789223
    50  H    4.637017   4.356060   5.910252   5.561654   4.271388
                   21         22         23         24         25
    21  N    0.000000
    22  C    3.651393   0.000000
    23  C    4.181297   1.393641   0.000000
    24  C    3.737793   2.427841   1.401098   0.000000
    25  C    2.511526   2.834340   2.435557   1.393476   0.000000
    26  C    1.472922   4.928194   5.185252   4.394745   3.008338
    27  C    2.508555   5.691965   5.825459   4.923203   3.587266
    28  H    7.317791  10.288023  11.261309  11.043943   9.810098
    29  H    5.452417   8.929018   9.604860   9.067576   7.719892
    30  H    5.129579   7.847101   8.880228   8.784990   7.637948
    31  H    3.081828   6.586352   7.232237   6.722619   5.396442
    32  H   10.793304  14.367662  14.846806  14.067507  12.691384
    33  H   13.051482  16.593606  17.156226  16.438249  15.060527
    34  H   13.617291  17.028947  17.763298  17.210458  15.848134
    35  H   12.154081  15.394175  16.255677  15.852751  14.528847
    36  H    9.283232  12.254971  13.239822  13.015686  11.769115
    37  H   10.823213  13.904067  14.850455  14.560498  13.278902
    38  H    9.420485  12.178426  13.204547  13.060860  11.871022
    39  H   10.805683  13.482503  14.564147  14.475367  13.297610
    40  H   10.959664  13.858387  14.839837  14.620124  13.387611
    41  H    3.397790   5.505944   6.628044   6.726715   5.754061
    42  H    4.500893   1.085216   2.162580   3.416117   3.919551
    43  H    5.265956   2.147206   1.085192   2.157425   3.412740
    44  H    4.639792   3.406204   2.155510   1.085328   2.142188
    45  H    2.821681   3.918293   3.414798   2.152565   1.084106
    46  H    2.077555   5.642172   6.039662   5.341225   3.981216
    47  H    2.070763   4.938936   4.955418   3.995138   2.659441
    48  H    2.789689   5.335328   5.281436   4.304971   3.099095
    49  H    2.800087   6.000991   6.321261   5.589676   4.299869
    50  H    3.440053   6.663308   6.692170   5.665173   4.337850
                   26         27         28         29         30
    26  C    0.000000
    27  C    1.530060   0.000000
    28  H    7.166037   7.338479   0.000000
    29  H    4.831493   4.669729   3.088313   0.000000
    30  H    5.313128   5.766448   2.497654   3.085116   0.000000
    31  H    2.636087   2.771908   4.621661   2.373880   3.079624
    32  H    9.809367   9.184478   6.615003   5.678894   8.304744
    33  H   12.143378  11.586525   7.855508   7.724467   9.948291
    34  H   12.907899  12.542115   7.318925   8.166521   9.710231
    35  H   11.643735  11.469297   5.265419   6.845263   7.751196
    36  H    9.049175   9.246457   2.077622   4.745530   4.426659
    37  H   10.469572  10.531896   3.638271   5.883386   6.097163
    38  H    9.350159   9.258670   2.630889   5.033864   4.656541
    39  H   10.760385  10.806535   3.661480   6.449710   5.790490
    40  H   10.746604  10.557372   3.995331   6.129459   6.285619
    41  H    4.175836   4.944764   4.910944   4.581045   2.415980
    42  H    5.861332   6.641526  10.663237   9.572651   8.186355
    43  H    6.252835   6.853515  12.300857  10.685281   9.898336
    44  H    5.070831   5.460868  11.948679   9.821077   9.748351
    45  H    2.752286   3.118279   9.857400   7.510154   7.850343
    46  H    1.091236   2.187683   6.333867   4.081455   4.591978
    47  H    1.093146   2.172319   8.074207   5.706854   6.243350
    48  H    2.178781   1.094092   8.307130   5.682509   6.651833
    49  H    2.186109   1.094447   6.611311   4.024677   5.120704
    50  H    2.159491   1.094979   7.501623   4.603342   6.216656
                   31         32         33         34         35
    31  H    0.000000
    32  H    7.850685   0.000000
    33  H   10.027516   2.487208   0.000000
    34  H   10.539011   4.307614   2.478589   0.000000
    35  H    9.134779   5.003150   4.302359   2.465493   0.000000
    36  H    6.559275   6.518271   7.131080   6.052399   3.752581
    37  H    7.957793   5.997695   6.018469   4.537951   2.147414
    38  H    6.727285   6.777876   7.388353   6.358075   4.203425
    39  H    8.169656   7.620717   7.749378   6.192848   3.813194
    40  H    8.112542   6.266300   6.299961   4.911501   2.836798
    41  H    3.081799  10.217607  12.087258  12.045514  10.152613
    42  H    7.283898  15.098793  17.265223  17.578299  15.844461
    43  H    8.313566  15.915005  18.230582  18.840304  17.320794
    44  H    7.520204  14.610250  17.021367  17.910984  16.648537
    45  H    5.300934  12.178737  14.592578  15.526540  14.350343
    46  H    2.052395   9.151364  11.424692  12.098165  10.787639
    47  H    3.635930  10.446300  12.807755  13.658080  12.460772
    48  H    3.762155  10.034909  12.455548  13.475790  12.441732
    49  H    2.246978   8.656540  11.006830  11.871285  10.746089
    50  H    3.137484   8.585993  11.033271  12.154243  11.259693
                   36         37         38         39         40
    36  H    0.000000
    37  H    1.747427   0.000000
    38  H    2.543424   3.089165   0.000000
    39  H    2.511878   2.505512   1.774207   0.000000
    40  H    3.091377   2.536572   1.773012   1.773495   0.000000
    41  H    6.819346   8.508407   6.882123   8.046042   8.580202
    42  H   12.602507  14.282475  12.462513  13.705200  14.181857
    43  H   14.277491  15.899984  14.212098  15.561896  15.862531
    44  H   13.909836  15.419948  13.976524  15.416123  15.498693
    45  H   11.778682  13.212333  11.946924  13.403030  13.379272
    46  H    8.138278   9.559466   8.646272   9.975527  10.010463
    47  H    9.886336  11.291136  10.338968  11.705231  11.704604
    48  H   10.252195  11.539041  10.123422  11.712469  11.440155
    49  H    8.565239   9.835513   8.362129   9.963419   9.674522
    50  H    9.289733  10.459086   9.437253  10.966909  10.602741
                   41         42         43         44         45
    41  H    0.000000
    42  H    5.784513   0.000000
    43  H    7.604200   2.487018   0.000000
    44  H    7.757359   4.307695   2.478462   0.000000
    45  H    6.215189   5.003505   4.301848   2.464836   0.000000
    46  H    3.803589   6.494746   7.112638   6.045352   3.759734
    47  H    5.034168   5.938416   5.971503   4.523972   2.187514
    48  H    5.586791   6.318842   6.245462   4.737806   2.582419
    49  H    4.503583   6.851935   7.355900   6.220983   4.015817
    50  H    5.721989   7.643788   7.698093   6.067798   3.656116
                   46         47         48         49         50
    46  H    0.000000
    47  H    1.749363   0.000000
    48  H    3.094934   2.525333   0.000000
    49  H    2.562768   3.090203   1.767584   0.000000
    50  H    2.516289   2.502318   1.771955   1.775936   0.000000
 Stoichiometry    C23H23N2S2(1+)
 Framework group  C1[X(C23H23N2S2)]
 Deg. of freedom   144
 Full point group                 C1      NOp   1
 Largest Abelian subgroup         C1      NOp   1
 Largest concise Abelian subgroup C1      NOp   1
                         Standard orientation:                         
 ---------------------------------------------------------------------
 Center     Atomic      Atomic             Coordinates (Angstroms)
 Number     Number       Type             X           Y           Z
 ---------------------------------------------------------------------
      1          6           0       -2.428041    1.066524   -0.253176
      2          6           0       -1.163701    0.479343   -0.188922
      3          6           0        0.041805    1.173916   -0.256816
      4          6           0        1.286450    0.541332   -0.181046
      5          6           0       -3.632364    0.360929   -0.172103
      6         16           0       -3.731682   -1.381240    0.072853
      7          6           0       -5.492381   -1.316150    0.079346
      8          6           0       -5.937414    0.002523   -0.102460
      9          7           0       -4.878726    0.909623   -0.261587
     10          6           0       -6.386349   -2.371189    0.240698
     11          6           0       -7.751214   -2.085245    0.223608
     12          6           0       -8.201765   -0.770406    0.051330
     13          6           0       -7.306986    0.285734   -0.111525
     14          6           0       -5.109277    2.349928   -0.473641
     15          6           0       -5.164583    3.142776    0.833251
     16          6           0        2.499506    1.229230   -0.203687
     17          6           0        3.822110    0.764058   -0.127091
     18         16           0        5.094002    1.944187    0.172030
     19          6           0        6.326179    0.693711    0.140374
     20          6           0        5.740783   -0.561555   -0.088266
     21          7           0        4.346445   -0.488644   -0.256376
     22          6           0        7.702092    0.835001    0.309547
     23          6           0        8.493059   -0.310930    0.250826
     24          6           0        7.913914   -1.567173    0.028296
     25          6           0        6.538273   -1.709565   -0.142327
     26          6           0        3.573454   -1.678630   -0.651238
     27          6           0        3.111260   -2.522112    0.538719
     28          1           0       -2.480232    2.144966   -0.359543
     29          1           0       -1.101764   -0.604050   -0.075964
     30          1           0        0.014895    2.256753   -0.370616
     31          1           0        1.271155   -0.537990   -0.061902
     32          1           0       -6.030956   -3.387372    0.377927
     33          1           0       -8.467850   -2.890478    0.348789
     34          1           0       -9.267265   -0.563876    0.046694
     35          1           0       -7.675558    1.298131   -0.232690
     36          1           0       -4.320988    2.718242   -1.133807
     37          1           0       -6.043470    2.442277   -1.031819
     38          1           0       -4.221825    3.066705    1.383681
     39          1           0       -5.350379    4.199206    0.614515
     40          1           0       -5.968923    2.780771    1.480961
     41          1           0        2.426074    2.314290   -0.229676
     42          1           0        8.144449    1.810753    0.482525
     43          1           0        9.567045   -0.226720    0.381606
     44          1           0        8.544040   -2.450028   -0.009720
     45          1           0        6.108776   -2.691785   -0.303762
     46          1           0        2.735494   -1.334144   -1.259472
     47          1           0        4.216087   -2.264286   -1.313807
     48          1           0        3.963720   -2.884064    1.121248
     49          1           0        2.464779   -1.951800    1.212975
     50          1           0        2.552692   -3.391803    0.177306
 ---------------------------------------------------------------------
 Rotational constants (GHZ):           0.5241396           0.0450045           0.0417493
 Standard basis: def2TZVP (5D, 7F)
 There are  1122 symmetry adapted cartesian basis functions of A   symmetry.
 There are   987 symmetry adapted basis functions of A   symmetry.
   987 basis functions,  1597 primitive gaussians,  1122 cartesian basis functions
   103 alpha electrons      103 beta electrons
       nuclear repulsion energy      2425.7707626972 Hartrees.
 NAtoms=   50 NActive=   50 NUniq=   50 SFac= 1.00D+00 NAtFMM=   60 NAOKFM=F Big=F
 Integral buffers will be    131072 words long.
 Raffenetti 1 integral format.
 Two-electron integral symmetry is turned on.
 ------------------------------------------------------------------------------
 Polarizable Continuum Model (PCM)
 =================================
 Model                : PCM.
 Atomic radii         : SMD-Coulomb.
 Polarization charges : Total charges.
 Charge compensation  : None.
 Solution method      : On-the-fly selection.
 Cavity type          : VdW (van der Waals Surface) (Alpha=1.000).
 Cavity algorithm     : GePol (No added spheres)
                        Default sphere list used, NSphG=   50.
                        Lebedev-Laikov grids with approx.  5.0 points / Ang**2.
                        Smoothing algorithm: York/Karplus (Gamma=1.0000).
                        Polarization charges: spherical gaussians, with
                                              point-specific exponents (IZeta= 3).
                        Self-potential: point-specific (ISelfS= 7).
                        Self-field    : sphere-specific E.n sum rule (ISelfD= 2).
 Solvent              : Ethanol, Eps=  24.852000 Eps(inf)=   1.852593
 ------------------------------------------------------------------------------
 ------------------------------------------------------------------------------
 Atomic radii for non-electrostatic terms: SMD-CDS.
 ------------------------------------------------------------------------------
 Nuclear repulsion after PCM non-electrostatic terms =     2425.7643538585 Hartrees.
 One-electron integrals computed using PRISM.
   1 Symmetry operations used in ECPInt.
 ECPInt:  NShTT=   77421 NPrTT=  240469 LenC2=   53376 LenP2D=  113462.
 LDataN:  DoStor=T MaxTD1= 6 Len=  172
 NBasis=   987 RedAO= T EigKep=  7.12D-06  NBF=   987
 NBsUse=   987 1.00D-06 EigRej= -1.00D+00 NBFU=   987
 ExpMin= 9.52D-02 ExpMax= 6.07D+04 ExpMxC= 2.07D+03 IAcc=3 IRadAn=         5 AccDes= 0.00D+00
 Harris functional with IExCor=20419 and IRadAn=       5 diagonalized for initial guess.
 HarFok:  IExCor=20419 AccDes= 0.00D+00 IRadAn=         5 IDoV= 1 UseB2=F ITyADJ=14
 ICtDFT=  3500011 ScaDFX=  1.000000  1.000000  1.000000  1.000000
 FoFCou: FMM=F IPFlag=           0 FMFlag=      100000 FMFlg1=           0
         NFxFlg=           0 DoJE=T BraDBF=F KetDBF=T FulRan=T
         wScrn=  0.000000 ICntrl=       500 IOpCl=  0 I1Cent=   200000004 NGrid=           0
         NMat0=    1 NMatS0=      1 NMatT0=    0 NMatD0=    1 NMtDS0=    0 NMtDT0=    0
 Petite list used in FoFCou.
 Requested convergence on RMS density matrix=1.00D-08 within 128 cycles.
 Requested convergence on MAX density matrix=1.00D-06.
 Requested convergence on             energy=1.00D-06.
 No special actions if energy rises.
 Inv3:  Mode=1 IEnd=    44444403.
 Iteration    1 A*A^-1 deviation from unit magnitude is 3.66D-15 for   2678.
 Iteration    1 A*A^-1 deviation from orthogonality  is 3.16D-15 for   2784   2121.
 Iteration    1 A^-1*A deviation from unit magnitude is 4.00D-15 for    892.
 Iteration    1 A^-1*A deviation from orthogonality  is 3.25D-14 for   3525   2563.
 Error on total polarization charges =  0.06980
 SCF Done:  E(RCAM-B3LYP) =  -1795.88882008     A.U. after   15 cycles
            NFock= 15  Conv=0.85D-08     -V/T= 2.0038
 SMD-CDS (non-electrostatic) energy       (kcal/mol) =      -4.02
 (included in total energy above)
 DoSCS=F DFT=T ScalE2(SS,OS)=  1.000000  1.000000
 ExpMin= 9.52D-02 ExpMax= 6.07D+04 ExpMxC= 2.07D+03 IAcc=3 IRadAn=         5 AccDes= 0.00D+00
 HarFok:  IExCor=  205 AccDes= 0.00D+00 IRadAn=         5 IDoV=-2 UseB2=F ITyADJ=14
 ICtDFT= 12500011 ScaDFX=  1.000000  1.000000  1.000000  1.000000
 GSVD:  LWork=       -1505 too small for GESVD, short by        6650 words or        6650 for optimal perf.
 Range of M.O.s used for correlation:    36   987
 NBasis=   987 NAE=   103 NBE=   103 NFC=    35 NFV=     0
 NROrb=    952 NOA=    68 NOB=    68 NVA=   884 NVB=   884

 **** Warning!!: The largest alpha MO coefficient is  0.41554730D+02

 NEqPCM:  Using non-equilibrium solvation (IEInf=1, Eps=  24.8520, EpsInf=   1.8526)
 Inv3:  Mode=1 IEnd=    44444403.
 Iteration    1 A*A^-1 deviation from unit magnitude is 3.89D-15 for    333.
 Iteration    1 A*A^-1 deviation from orthogonality  is 2.49D-15 for   1493    665.
 Iteration    1 A^-1*A deviation from unit magnitude is 3.55D-15 for    333.
 Iteration    1 A^-1*A deviation from orthogonality  is 3.03D-15 for   2970   2035.
 Orbital symmetries:
       Occupied  (A) (A) (A) (A) (A) (A) (A) (A) (A) (A) (A) (A)
                 (A) (A) (A) (A) (A) (A) (A) (A) (A) (A) (A) (A)
                 (A) (A) (A) (A) (A) (A) (A) (A) (A) (A) (A) (A)
                 (A) (A) (A) (A) (A) (A) (A) (A) (A) (A) (A) (A)
                 (A) (A) (A) (A) (A) (A) (A) (A) (A) (A) (A) (A)
                 (A) (A) (A) (A) (A) (A) (A) (A) (A) (A) (A) (A)
                 (A) (A) (A) (A) (A) (A) (A) (A) (A) (A) (A) (A)
                 (A) (A) (A) (A) (A) (A) (A) (A) (A) (A) (A) (A)
                 (A) (A) (A) (A) (A) (A) (A)
       Virtual   (A) (A) (A) (A) (A) (A) (A) (A) (A) (A) (A) (A)
                 (A) (A) (A) (A) (A) (A) (A) (A) (A) (A) (A) (A)
                 (A) (A) (A) (A) (A) (A) (A) (A) (A) (A) (A) (A)
                 (A) (A) (A) (A) (A) (A) (A) (A) (A) (A) (A) (A)
                 (A) (A) (A) (A) (A) (A) (A) (A) (A) (A) (A) (A)
                 (A) (A) (A) (A) (A) (A) (A) (A) (A) (A) (A) (A)
                 (A) (A) (A) (A) (A) (A) (A) (A) (A) (A) (A) (A)
                 (A) (A) (A) (A) (A) (A) (A) (A) (A) (A) (A) (A)
                 (A) (A) (A) (A) (A) (A) (A) (A) (A) (A) (A) (A)
                 (A) (A) (A) (A) (A) (A) (A) (A) (A) (A) (A) (A)
                 (A) (A) (A) (A) (A) (A) (A) (A) (A) (A) (A) (A)
                 (A) (A) (A) (A) (A) (A) (A) (A) (A) (A) (A) (A)
                 (A) (A) (A) (A) (A) (A) (A) (A) (A) (A) (A) (A)
                 (A) (A) (A) (A) (A) (A) (A) (A) (A) (A) (A) (A)
                 (A) (A) (A) (A) (A) (A) (A) (A) (A) (A) (A) (A)
                 (A) (A) (A) (A) (A) (A) (A) (A) (A) (A) (A) (A)
                 (A) (A) (A) (A) (A) (A) (A) (A) (A) (A) (A) (A)
                 (A) (A) (A) (A) (A) (A) (A) (A) (A) (A) (A) (A)
                 (A) (A) (A) (A) (A) (A) (A) (A) (A) (A) (A) (A)
                 (A) (A) (A) (A) (A) (A) (A) (A) (A) (A) (A) (A)
                 (A) (A) (A) (A) (A) (A) (A) (A) (A) (A) (A) (A)
                 (A) (A) (A) (A) (A) (A) (A) (A) (A) (A) (A) (A)
                 (A) (A) (A) (A) (A) (A) (A) (A) (A) (A) (A) (A)
                 (A) (A) (A) (A) (A) (A) (A) (A) (A) (A) (A) (A)
                 (A) (A) (A) (A) (A) (A) (A) (A) (A) (A) (A) (A)
                 (A) (A) (A) (A) (A) (A) (A) (A) (A) (A) (A) (A)
                 (A) (A) (A) (A) (A) (A) (A) (A) (A) (A) (A) (A)
                 (A) (A) (A) (A) (A) (A) (A) (A) (A) (A) (A) (A)
                 (A) (A) (A) (A) (A) (A) (A) (A) (A) (A) (A) (A)
                 (A) (A) (A) (A) (A) (A) (A) (A) (A) (A) (A) (A)
                 (A) (A) (A) (A) (A) (A) (A) (A) (A) (A) (A) (A)
                 (A) (A) (A) (A) (A) (A) (A) (A) (A) (A) (A) (A)
                 (A) (A) (A) (A) (A) (A) (A) (A) (A) (A) (A) (A)
                 (A) (A) (A) (A) (A) (A) (A) (A) (A) (A) (A) (A)
                 (A) (A) (A) (A) (A) (A) (A) (A) (A) (A) (A) (A)
                 (A) (A) (A) (A) (A) (A) (A) (A) (A) (A) (A) (A)
                 (A) (A) (A) (A) (A) (A) (A) (A) (A) (A) (A) (A)
                 (A) (A) (A) (A) (A) (A) (A) (A) (A) (A) (A) (A)
                 (A) (A) (A) (A) (A) (A) (A) (A) (A) (A) (A) (A)
                 (A) (A) (A) (A) (A) (A) (A) (A) (A) (A) (A) (A)
                 (A) (A) (A) (A) (A) (A) (A) (A) (A) (A) (A) (A)
                 (A) (A) (A) (A) (A) (A) (A) (A) (A) (A) (A) (A)
                 (A) (A) (A) (A) (A) (A) (A) (A) (A) (A) (A) (A)
                 (A) (A) (A) (A) (A) (A) (A) (A) (A) (A) (A) (A)
                 (A) (A) (A) (A) (A) (A) (A) (A) (A) (A) (A) (A)
                 (A) (A) (A) (A) (A) (A) (A) (A) (A) (A) (A) (A)
                 (A) (A) (A) (A) (A) (A) (A) (A) (A) (A) (A) (A)
                 (A) (A) (A) (A) (A) (A) (A) (A) (A) (A) (A) (A)
                 (A) (A) (A) (A) (A) (A) (A) (A) (A) (A) (A) (A)
                 (A) (A) (A) (A) (A) (A) (A) (A) (A) (A) (A) (A)
                 (A) (A) (A) (A) (A) (A) (A) (A) (A) (A) (A) (A)
                 (A) (A) (A) (A) (A) (A) (A) (A) (A) (A) (A) (A)
                 (A) (A) (A) (A) (A) (A) (A) (A) (A) (A) (A) (A)
                 (A) (A) (A) (A) (A) (A) (A) (A) (A) (A) (A) (A)
                 (A) (A) (A) (A) (A) (A) (A) (A) (A) (A) (A) (A)
                 (A) (A) (A) (A) (A) (A) (A) (A) (A) (A) (A) (A)
                 (A) (A) (A) (A) (A) (A) (A) (A) (A) (A) (A) (A)
                 (A) (A) (A) (A) (A) (A) (A) (A) (A) (A) (A) (A)
                 (A) (A) (A) (A) (A) (A) (A) (A) (A) (A) (A) (A)
                 (A) (A) (A) (A) (A) (A) (A) (A) (A) (A) (A) (A)
                 (A) (A) (A) (A) (A) (A) (A) (A) (A) (A) (A) (A)
                 (A) (A) (A) (A) (A) (A) (A) (A) (A) (A) (A) (A)
                 (A) (A) (A) (A) (A) (A) (A) (A) (A) (A) (A) (A)
                 (A) (A) (A) (A) (A) (A) (A) (A) (A) (A) (A) (A)
                 (A) (A) (A) (A) (A) (A) (A) (A) (A) (A) (A) (A)
                 (A) (A) (A) (A) (A) (A) (A) (A) (A) (A) (A) (A)
                 (A) (A) (A) (A) (A) (A) (A) (A) (A) (A) (A) (A)
                 (A) (A) (A) (A) (A) (A) (A) (A) (A) (A) (A) (A)
                 (A) (A) (A) (A) (A) (A) (A) (A) (A) (A) (A) (A)
                 (A) (A) (A) (A) (A) (A) (A) (A) (A) (A) (A) (A)
                 (A) (A) (A) (A) (A) (A) (A) (A) (A) (A) (A) (A)
                 (A) (A) (A) (A) (A) (A) (A) (A) (A) (A) (A) (A)
                 (A) (A) (A) (A) (A) (A) (A) (A) (A) (A) (A) (A)
                 (A) (A) (A) (A) (A) (A) (A) (A)
   600 initial guesses have been made.
 Convergence on wavefunction:    0.001000000000000
 Iteration     1 Dimension   600 NMult     0 NNew    600
 CISAX will form   160 AO SS matrices at one time.
 New state      3 was old state      4
 New state      4 was old state      5
 New state      5 was old state     10
 New state      6 was old state     11
 New state      7 was old state      3
 New state      8 was old state      6
 New state      9 was old state      7
 New state     10 was old state      9
 New state     11 was old state      8
 New state     15 was old state     42
 New state     16 was old state     47
 New state     17 was old state     15
 New state     18 was old state     20
 New state     19 was old state     30
 New state     20 was old state     19
 New state     21 was old state     18
 New state     22 was old state     29
 New state     23 was old state     44
 New state     24 was old state     34
 New state     25 was old state     17
 New state     26 was old state     23
 New state     27 was old state     24
 New state     28 was old state     41
 New state     29 was old state     31
 New state     30 was old state     22
 New state     31 was old state     32
 New state     32 was old state     60
 New state     33 was old state     16
 New state     34 was old state     21
 New state     35 was old state     52
 New state     36 was old state     48
 New state     37 was old state     27
 New state     38 was old state     55
 New state     39 was old state     38
 New state     40 was old state     51
 New state     41 was old state     58
 New state     42 was old state     53
 New state     43 was old state     39
 New state     44 was old state     43
 New state     45 was old state     56
 New state     46 was old state     35
 New state     47 was old state     61
 New state     48 was old state     50
 New state     49 was old state     63
 New state     50 was old state     36
 New state     51 was old state    132
 New state     52 was old state    139
 New state     53 was old state     46
 New state     54 was old state     45
 New state     55 was old state     65
 New state     56 was old state     57
 New state     57 was old state     64
 New state     58 was old state     78
 New state     59 was old state     62
 New state     60 was old state    106
 New state     61 was old state     97
 New state     62 was old state     67
 New state     63 was old state     25
 New state     64 was old state     66
 New state     65 was old state    102
 New state     66 was old state     26
 New state     67 was old state     79
 New state     68 was old state     75
 New state     69 was old state    168
 New state     70 was old state    172
 New state     71 was old state     70
 New state     72 was old state     83
 New state     73 was old state     92
 New state     74 was old state     81
 New state     75 was old state     88
 New state     76 was old state    113
 New state     77 was old state     73
 New state     78 was old state    118
 New state     79 was old state     37
 New state     80 was old state     74
 New state     81 was old state     87
 New state     82 was old state    127
 New state     83 was old state     89
 New state     84 was old state     40
 New state     85 was old state    208
 New state     86 was old state     71
 New state     87 was old state     49
 New state     88 was old state     86
 New state     89 was old state     59
 New state     90 was old state     72
 New state     92 was old state     80
 New state     93 was old state     54
 New state     94 was old state    138
 New state     95 was old state     94
 New state     96 was old state     82
 New state     97 was old state     69
 New state     98 was old state     68
 New state     99 was old state    213
 New state    100 was old state     85
 New state    101 was old state     76
 New state    102 was old state    235
 New state    103 was old state     95
 New state    104 was old state    119
 New state    105 was old state    146
 New state    106 was old state     93
 New state    107 was old state    144
 New state    108 was old state    107
 New state    109 was old state    105
 New state    110 was old state    109
 New state    111 was old state    135
 New state    112 was old state     77
 New state    113 was old state    176
 New state    114 was old state    153
 New state    115 was old state     99
 New state    116 was old state    115
 New state    117 was old state    110
 New state    118 was old state    103
 New state    119 was old state    161
 New state    120 was old state    148
 New state    121 was old state    111
 New state    122 was old state    145
 New state    123 was old state    125
 New state    124 was old state    149
 New state    125 was old state    108
 New state    126 was old state    196
 New state    127 was old state    269
 New state    128 was old state    133
 New state    130 was old state    288
 New state    131 was old state    159
 New state    132 was old state    163
 New state    133 was old state     96
 New state    134 was old state     84
 New state    135 was old state    120
 New state    136 was old state    185
 New state    137 was old state    147
 New state    138 was old state    136
 New state    139 was old state    140
 New state    140 was old state    117
 New state    141 was old state    192
 New state    142 was old state     90
 New state    143 was old state    187
 New state    144 was old state    122
 New state    145 was old state    206
 New state    146 was old state    165
 New state    147 was old state    131
 New state    148 was old state    230
 New state    149 was old state    218
 New state    150 was old state    179
 Iteration     2 Dimension   900 NMult   600 NNew    300
 New state      5 was old state      7
 New state      6 was old state      5
 New state      7 was old state      6
 New state     17 was old state     18
 New state     18 was old state     21
 New state     19 was old state     20
 New state     20 was old state     17
 New state     21 was old state     22
 New state     22 was old state     19
 New state     23 was old state     30
 New state     24 was old state     25
 New state     25 was old state     27
 New state     26 was old state     24
 New state     27 was old state     23
 New state     28 was old state     26
 New state     29 was old state     28
 New state     30 was old state     33
 New state     31 was old state     29
 New state     32 was old state     34
 New state     33 was old state     31
 New state     34 was old state     32
 New state     35 was old state     37
 New state     36 was old state     39
 New state     37 was old state     35
 New state     38 was old state     40
 New state     39 was old state     36
 New state     40 was old state     46
 New state     41 was old state     38
 New state     42 was old state     43
 New state     43 was old state     41
 New state     44 was old state     42
 New state     45 was old state     44
 New state     46 was old state     45
 New state     47 was old state     49
 New state     48 was old state     47
 New state     49 was old state     48
 New state     54 was old state     58
 New state     56 was old state     54
 New state     57 was old state     65
 New state     58 was old state     57
 New state     59 was old state     56
 New state     60 was old state     61
 New state     61 was old state     62
 New state     62 was old state     59
 New state     63 was old state     60
 No map to state     64
 New state     65 was old state     68
 New state     66 was old state     64
 New state     67 was old state     70
 New state     68 was old state     67
 New state     70 was old state     63
 New state     71 was old state     93
 New state     72 was old state     74
 New state     73 was old state     66
 New state     74 was old state     73
 New state     75 was old state     71
 New state     76 was old state     72
 New state     77 was old state     75
 New state     79 was old state     77
 New state     80 was old state     76
 New state     81 was old state     89
 New state     82 was old state     79
 New state     83 was old state     97
 New state     84 was old state     80
 New state     85 was old state     83
 New state     86 was old state     85
 New state     89 was old state     82
 New state     90 was old state     86
 New state     91 was old state     94
 New state     92 was old state     84
 New state     93 was old state     91
 New state     94 was old state     92
 New state     97 was old state     98
 New state     98 was old state     90
 New state    100 was old state    106
 New state    102 was old state    100
 New state    103 was old state    102
 New state    104 was old state    103
 New state    106 was old state    104
 New state    110 was old state    113
 New state    111 was old state    110
 New state    112 was old state    111
 New state    113 was old state    114
 New state    114 was old state    112
 New state    115 was old state    119
 New state    116 was old state    118
 New state    117 was old state    116
 New state    118 was old state    117
 New state    119 was old state    115
 New state    120 was old state    122
 New state    121 was old state    120
 New state    122 was old state    121
 New state    123 was old state    124
 New state    124 was old state    127
 New state    126 was old state    123
 New state    127 was old state    126
 New state    129 was old state    130
 New state    130 was old state    133
 New state    131 was old state    129
 New state    132 was old state    131
 New state    133 was old state    132
 New state    138 was old state    142
 New state    139 was old state    138
 New state    141 was old state    139
 New state    142 was old state    149
 New state    143 was old state    141
 New state    145 was old state    143
 New state    146 was old state    145
 New state    147 was old state    150
 New state    148 was old state    151
 New state    149 was old state    146
 New state    150 was old state    148
 Iteration     3 Dimension  1200 NMult   900 NNew    300
 New state    122 was old state    123
 New state    123 was old state    122
 New state    128 was old state    130
 New state    129 was old state    128
 New state    130 was old state    129
 New state    135 was old state    137
 New state    136 was old state    135
 New state    137 was old state    136
 New state    143 was old state    144
 New state    144 was old state    143
 New state    146 was old state    147
 New state    147 was old state    146
 Iteration     4 Dimension  1500 NMult  1200 NNew    300
 Iteration     5 Dimension  1644 NMult  1500 NNew    144
 Iteration     6 Dimension  1654 NMult  1644 NNew     10
 ***********************************************************************
 Excited states from <AA,BB:AA,BB> singles matrix:
 ***********************************************************************
 
 Ground to excited state transition densities written to RWF  633
 Ground to excited state transition electric dipole moments (Au):
       state          X           Y           Z        Dip. S.      Osc.
         1         6.3845      0.1797      0.0074     40.7943      2.2907
         2         0.3273     -0.7063      0.1666      0.6337      0.0639
         3        -0.1701     -0.1031      0.0578      0.0429      0.0047
         4         0.1007      0.6509     -0.0161      0.4341      0.0481
         5         0.0294     -0.4157      0.1154      0.1870      0.0209
         6         0.0914     -0.2350     -0.0163      0.0638      0.0073
         7         0.0532     -0.0686      0.0403      0.0092      0.0011
         8        -0.9775      0.4280     -0.0355      1.1400      0.1336
         9        -0.0420      0.6604      0.0990      0.4476      0.0530
        10        -0.3705      0.5730      0.0240      0.4663      0.0575
        11        -0.1835     -0.4404     -0.0027      0.2276      0.0292
        12        -0.3441     -0.1499      0.0014      0.1409      0.0184
        13        -0.3333      0.3259     -0.1016      0.2276      0.0322
        14        -1.5617     -0.4931      0.0085      2.6821      0.3851
        15        -0.0565     -0.0077      0.0517      0.0059      0.0009
        16         0.0970      0.2989     -0.0539      0.1016      0.0150
        17         0.2188     -0.5743      0.1153      0.3910      0.0580
        18         0.2619      0.5992     -0.0993      0.4375      0.0650
        19         0.4077      0.1564      0.1080      0.2023      0.0302
        20         0.0893      0.0396     -0.0189      0.0099      0.0015
        21        -0.2124      0.0071     -0.0369      0.0465      0.0071
        22         0.1799      0.3535     -0.0099      0.1574      0.0242
        23         0.0387     -0.0289      0.0436      0.0042      0.0007
        24         0.1627      0.4902     -0.0450      0.2688      0.0419
        25        -0.4465      0.0256      0.0487      0.2024      0.0316
        26        -0.3175     -0.2839     -0.1088      0.1932      0.0305
        27         0.0346      0.1406     -0.0279      0.0217      0.0034
        28        -0.2123      0.0228     -0.0586      0.0490      0.0079
        29        -0.9215     -0.0509      0.0843      0.8588      0.1392
        30        -1.6472      1.3031      0.0392      4.4128      0.7162
        31        -1.0105     -0.4793     -0.1275      1.2672      0.2060
        32         0.2967      0.0908     -0.0802      0.1027      0.0168
        33         0.1548      0.1454      0.0012      0.0451      0.0074
        34         0.2581      0.2491      0.0327      0.1298      0.0217
        35        -0.5745      0.0711     -0.1814      0.3680      0.0618
        36         0.1757      0.6056     -0.0565      0.4008      0.0682
        37        -0.1108     -0.2587     -0.0110      0.0793      0.0136
        38        -0.1465     -0.5755      0.0151      0.3529      0.0608
        39         0.0616      0.2233     -0.0019      0.0537      0.0094
        40        -0.0990     -0.5758      0.0812      0.3479      0.0609
        41         0.5027      0.3199      0.0028      0.3550      0.0623
        42         0.4881      0.3509      0.0910      0.3696      0.0650
        43        -0.0123     -0.0620     -0.0145      0.0042      0.0007
        44        -0.0955     -0.0950      0.1497      0.0406      0.0072
        45        -0.0308      0.1013     -0.0033      0.0112      0.0020
        46        -0.0075     -0.0411     -0.0215      0.0022      0.0004
        47         0.0006      0.0733     -0.0165      0.0056      0.0010
        48         0.0667      0.0153     -0.0892      0.0126      0.0023
        49         0.0733      0.0681     -0.1058      0.0212      0.0039
        50         0.1066      0.0107      0.0322      0.0125      0.0023
        51        -0.1237      0.0920     -0.0232      0.0243      0.0045
        52        -0.0447     -0.0743     -0.0274      0.0083      0.0015
        53        -0.4400      0.2258     -0.0373      0.2460      0.0463
        54         0.4701      0.3074     -0.0268      0.3162      0.0597
        55        -0.0615      0.1426     -0.0304      0.0250      0.0047
        56         0.1645     -0.0191     -0.0120      0.0276      0.0052
        57        -0.2486     -0.0029     -0.1369      0.0806      0.0154
        58        -0.0492     -0.2474     -0.0680      0.0683      0.0131
        59        -0.0798     -0.0280      0.2185      0.0549      0.0105
        60        -0.2301     -0.7085      0.0775      0.5610      0.1075
        61        -0.1019      0.2373      0.0346      0.0679      0.0131
        62         0.0932      0.0523      0.0118      0.0116      0.0022
        63         0.2866      0.2249      0.1131      0.1455      0.0282
        64        -0.0720      0.0133      0.2046      0.0472      0.0092
        65        -0.3269     -0.2740     -0.0442      0.1839      0.0359
        66        -0.3975     -0.3773      0.0182      0.3006      0.0589
        67        -0.1996     -0.2217      0.0440      0.0909      0.0178
        68         0.2507      0.1436      0.0995      0.0934      0.0183
        69         0.3350      0.2988      0.1437      0.2221      0.0437
        70        -0.1206      0.3968     -0.0776      0.1780      0.0351
        71         0.1667      0.0964      0.0709      0.0421      0.0083
        72        -0.1861     -0.6753     -0.0299      0.4916      0.0971
        73         0.0277      0.0554     -0.0211      0.0043      0.0008
        74        -0.1253      0.0734     -0.0263      0.0218      0.0043
        75        -0.1151      0.1099      0.2388      0.0824      0.0164
        76         0.0465     -0.0267      0.1439      0.0236      0.0047
        77         0.0686     -0.0804      0.2099      0.0552      0.0110
        78        -0.0599      0.4123      0.0130      0.1738      0.0348
        79        -0.2123      0.1070      0.0380      0.0580      0.0116
        80        -0.2204      0.3109      0.0400      0.1468      0.0295
        81        -0.2599      0.2571     -0.0881      0.1415      0.0285
        82         0.0105      0.1899      0.0254      0.0368      0.0074
        83        -0.3088     -0.0487      0.0568      0.1009      0.0205
        84        -0.0487     -0.2056     -0.0654      0.0489      0.0100
        85        -0.0584     -0.0083     -0.1027      0.0140      0.0029
        86        -0.0725     -0.0399      0.1000      0.0168      0.0034
        87         0.1500     -0.1447      0.0210      0.0439      0.0090
        88         0.2197     -0.2857     -0.0542      0.1328      0.0272
        89         0.0135      0.1307      0.0077      0.0173      0.0036
        90        -0.0931     -0.2097     -0.1083      0.0644      0.0133
        91        -0.0672      0.2614     -0.0251      0.0735      0.0152
        92        -0.0170      0.0516      0.0172      0.0032      0.0007
        93         0.0052      0.1095      0.0087      0.0121      0.0025
        94         0.0001      0.0426     -0.0191      0.0022      0.0005
        95        -0.0512     -0.2900     -0.0114      0.0868      0.0180
        96         0.0199      0.0776     -0.0360      0.0077      0.0016
        97         0.0118     -0.1276     -0.0199      0.0168      0.0035
        98         0.0315      0.1564      0.0101      0.0255      0.0053
        99        -0.0554     -0.0364     -0.0346      0.0056      0.0012
       100         0.0301      0.2658     -0.1493      0.0939      0.0197
       101         0.0645     -0.0380     -0.0263      0.0063      0.0013
       102         0.0529      0.2173     -0.0620      0.0539      0.0114
       103        -0.0777     -0.0991      0.0360      0.0172      0.0036
       104         0.1058      0.1413      0.0750      0.0368      0.0078
       105         0.0179      0.1921     -0.0193      0.0376      0.0080
       106         0.0795     -0.0874      0.0191      0.0143      0.0030
       107         0.0799     -0.0521      0.0668      0.0136      0.0029
       108        -0.1066      0.0938      0.0353      0.0214      0.0046
       109         0.0769     -0.1433     -0.0257      0.0271      0.0058
       110        -0.1041      0.0179      0.0152      0.0114      0.0024
       111        -0.3645      0.2452      0.0968      0.2024      0.0435
       112        -0.0484      0.1171     -0.0462      0.0182      0.0039
       113        -0.0612     -0.1372     -0.0206      0.0230      0.0050
       114         0.0077      0.2240      0.0466      0.0524      0.0113
       115        -0.0572      0.1796      0.0611      0.0393      0.0085
       116        -0.0808     -0.3462     -0.0289      0.1272      0.0276
       117        -0.1934      0.0740     -0.0733      0.0482      0.0105
       118         0.0801      0.2499     -0.0517      0.0715      0.0156
       119        -0.2057     -0.0175     -0.1533      0.0661      0.0144
       120         0.0384     -0.2398     -0.0033      0.0590      0.0129
       121        -0.0290      0.0560      0.0974      0.0135      0.0030
       122         0.4575     -0.0585      0.0387      0.2143      0.0472
       123         0.2552      0.0832      0.0277      0.0728      0.0160
       124        -0.0368      0.0172     -0.0529      0.0044      0.0010
       125         0.1752      0.2291     -0.0774      0.0891      0.0197
       126         0.0680      0.1080     -0.0077      0.0163      0.0036
       127         0.2001     -0.0697     -0.0168      0.0452      0.0100
       128        -0.7274     -0.4989     -0.0395      0.7795      0.1733
       129        -0.0336      0.3020     -0.0195      0.0927      0.0206
       130         0.0399      0.2443      0.0087      0.0613      0.0137
       131        -0.2914     -0.6889      0.0754      0.5652      0.1261
       132        -0.2357     -0.1823     -0.0306      0.0897      0.0201
       133         0.1614      0.2472      0.0919      0.0956      0.0214
       134         0.0351     -0.0659     -0.0236      0.0061      0.0014
       135         0.0191     -0.1458      0.1335      0.0395      0.0089
       136        -0.0105     -0.0456      0.1023      0.0126      0.0028
       137         0.0380     -0.1189      0.0544      0.0185      0.0042
       138         0.0199     -0.1652     -0.1207      0.0423      0.0095
       139        -0.0656      0.0542     -0.0974      0.0167      0.0038
       140         0.2785      0.0888     -0.1654      0.1128      0.0256
       141        -0.1253     -0.0589     -0.0915      0.0276      0.0063
       142        -0.0841     -0.1184      0.1246      0.0366      0.0083
       143        -0.0226     -0.1347     -0.1054      0.0298      0.0068
       144        -0.0826      0.0490      0.0551      0.0122      0.0028
       145        -0.2353      0.0020      0.0444      0.0573      0.0131
       146        -0.1033     -0.0320      0.0399      0.0133      0.0031
       147         0.0569     -0.0418     -0.1096      0.0170      0.0039
       148         0.0055     -0.0344     -0.2388      0.0583      0.0134
       149         0.1054     -0.0614      0.1109      0.0272      0.0063
       150         0.0302      0.1119      0.0075      0.0135      0.0031
 Ground to excited state transition velocity dipole moments (Au):
       state          X           Y           Z        Dip. S.      Osc.
         1        -0.5358     -0.0155     -0.0006      0.2873      2.2741
         2        -0.0486      0.1062     -0.0251      0.0143      0.0630
         3         0.0286      0.0176     -0.0095      0.0012      0.0049
         4        -0.0159     -0.1084      0.0029      0.0120      0.0482
         5        -0.0046      0.0699     -0.0192      0.0053      0.0210
         6        -0.0156      0.0406      0.0031      0.0019      0.0074
         7        -0.0091      0.0119     -0.0080      0.0003      0.0011
         8         0.1705     -0.0776      0.0063      0.0351      0.1333
         9         0.0072     -0.1182     -0.0177      0.0143      0.0538
        10         0.0673     -0.1086     -0.0044      0.0163      0.0589
        11         0.0381      0.0862      0.0005      0.0089      0.0308
        12         0.0666      0.0281      0.0003      0.0052      0.0178
        13         0.0711     -0.0692      0.0219      0.0103      0.0324
        14         0.3353      0.1081     -0.0020      0.1241      0.3841
        15         0.0127      0.0019     -0.0114      0.0003      0.0009
        16        -0.0217     -0.0665      0.0127      0.0051      0.0152
        17        -0.0496      0.1275     -0.0255      0.0194      0.0580
        18        -0.0591     -0.1353      0.0221      0.0223      0.0666
        19        -0.0930     -0.0359     -0.0246      0.0105      0.0314
        20        -0.0221     -0.0096      0.0045      0.0006      0.0018
        21         0.0468     -0.0006      0.0093      0.0023      0.0066
        22        -0.0389     -0.0822      0.0021      0.0083      0.0239
        23        -0.0070      0.0078     -0.0100      0.0002      0.0006
        24        -0.0383     -0.1131      0.0098      0.0144      0.0409
        25         0.1040     -0.0058     -0.0112      0.0110      0.0313
        26         0.0781      0.0691      0.0252      0.0115      0.0325
        27        -0.0087     -0.0331      0.0076      0.0012      0.0034
        28         0.0500     -0.0030      0.0132      0.0027      0.0075
        29         0.2226      0.0111     -0.0194      0.0500      0.1372
        30         0.3993     -0.3168     -0.0099      0.2599      0.7116
        31         0.2455      0.1172      0.0297      0.0749      0.2048
        32        -0.0729     -0.0210      0.0176      0.0061      0.0165
        33        -0.0380     -0.0366     -0.0008      0.0028      0.0075
        34        -0.0645     -0.0624     -0.0086      0.0081      0.0216
        35         0.1446     -0.0191      0.0458      0.0234      0.0619
        36        -0.0449     -0.1542      0.0147      0.0260      0.0679
        37         0.0296      0.0657      0.0043      0.0052      0.0135
        38         0.0397      0.1486     -0.0048      0.0237      0.0611
        39        -0.0163     -0.0585     -0.0007      0.0037      0.0094
        40         0.0265      0.1503     -0.0215      0.0238      0.0604
        41        -0.1323     -0.0840     -0.0003      0.0246      0.0622
        42        -0.1283     -0.0914     -0.0242      0.0254      0.0642
        43         0.0041      0.0161      0.0053      0.0003      0.0008
        44         0.0264      0.0260     -0.0388      0.0029      0.0072
        45         0.0083     -0.0264      0.0012      0.0008      0.0019
        46         0.0016      0.0099      0.0057      0.0001      0.0003
        47        -0.0007     -0.0204      0.0053      0.0004      0.0011
        48        -0.0193     -0.0035      0.0227      0.0009      0.0022
        49        -0.0202     -0.0203      0.0285      0.0016      0.0039
        50        -0.0282     -0.0035     -0.0075      0.0009      0.0021
        51         0.0342     -0.0264      0.0073      0.0019      0.0046
        52         0.0132      0.0206      0.0058      0.0006      0.0015
        53         0.1240     -0.0635      0.0097      0.0195      0.0461
        54        -0.1345     -0.0882      0.0076      0.0259      0.0610
        55         0.0163     -0.0398      0.0092      0.0019      0.0045
        56        -0.0470      0.0069      0.0023      0.0023      0.0053
        57         0.0714      0.0012      0.0373      0.0065      0.0151
        58         0.0161      0.0709      0.0181      0.0056      0.0131
        59         0.0219      0.0059     -0.0571      0.0038      0.0088
        60         0.0670      0.2013     -0.0221      0.0455      0.1055
        61         0.0296     -0.0678     -0.0109      0.0056      0.0129
        62        -0.0238     -0.0152     -0.0031      0.0008      0.0019
        63        -0.0825     -0.0648     -0.0322      0.0120      0.0276
        64         0.0213     -0.0044     -0.0556      0.0036      0.0082
        65         0.0950      0.0799      0.0131      0.0156      0.0355
        66         0.1154      0.1091     -0.0042      0.0252      0.0572
        67         0.0588      0.0641     -0.0125      0.0077      0.0175
        68        -0.0733     -0.0407     -0.0311      0.0080      0.0181
        69        -0.0978     -0.0869     -0.0422      0.0189      0.0427
        70         0.0357     -0.1163      0.0202      0.0152      0.0343
        71        -0.0487     -0.0276     -0.0173      0.0034      0.0077
        72         0.0541      0.1975      0.0065      0.0420      0.0945
        73        -0.0079     -0.0161      0.0061      0.0004      0.0008
        74         0.0389     -0.0215      0.0085      0.0020      0.0046
        75         0.0338     -0.0326     -0.0652      0.0065      0.0144
        76        -0.0124      0.0094     -0.0376      0.0017      0.0037
        77        -0.0221      0.0238     -0.0567      0.0043      0.0095
        78         0.0199     -0.1237     -0.0037      0.0157      0.0349
        79         0.0613     -0.0308     -0.0090      0.0048      0.0106
        80         0.0660     -0.0926     -0.0108      0.0131      0.0289
        81         0.0786     -0.0767      0.0220      0.0125      0.0277
        82        -0.0036     -0.0575     -0.0093      0.0034      0.0075
        83         0.0976      0.0145     -0.0154      0.0100      0.0218
        84         0.0144      0.0626      0.0208      0.0046      0.0099
        85         0.0177      0.0034      0.0265      0.0010      0.0022
        86         0.0215      0.0118     -0.0280      0.0014      0.0030
        87        -0.0464      0.0430     -0.0074      0.0041      0.0088
        88        -0.0693      0.0865      0.0146      0.0125      0.0271
        89        -0.0037     -0.0400     -0.0007      0.0016      0.0035
        90         0.0283      0.0637      0.0325      0.0059      0.0127
        91         0.0214     -0.0801      0.0070      0.0069      0.0149
        92         0.0055     -0.0149     -0.0050      0.0003      0.0006
        93        -0.0023     -0.0349     -0.0006      0.0012      0.0026
        94        -0.0008     -0.0120      0.0067      0.0002      0.0004
        95         0.0159      0.0894      0.0032      0.0083      0.0177
        96        -0.0076     -0.0241      0.0115      0.0008      0.0017
        97        -0.0049      0.0387      0.0034      0.0015      0.0033
        98        -0.0097     -0.0483     -0.0029      0.0024      0.0052
        99         0.0177      0.0119      0.0117      0.0006      0.0013
       100        -0.0075     -0.0830      0.0448      0.0089      0.0189
       101        -0.0212      0.0110      0.0086      0.0006      0.0014
       102        -0.0159     -0.0680      0.0180      0.0052      0.0109
       103         0.0238      0.0312     -0.0109      0.0017      0.0035
       104        -0.0324     -0.0437     -0.0241      0.0035      0.0074
       105        -0.0050     -0.0602      0.0060      0.0037      0.0077
       106        -0.0274      0.0256     -0.0042      0.0014      0.0030
       107        -0.0259      0.0168     -0.0190      0.0013      0.0027
       108         0.0335     -0.0312     -0.0118      0.0022      0.0046
       109        -0.0252      0.0453      0.0078      0.0027      0.0057
       110         0.0344     -0.0057     -0.0056      0.0012      0.0026
       111         0.1203     -0.0766     -0.0294      0.0212      0.0438
       112         0.0158     -0.0387      0.0145      0.0020      0.0040
       113         0.0189      0.0447      0.0054      0.0024      0.0049
       114        -0.0014     -0.0712     -0.0166      0.0053      0.0110
       115         0.0208     -0.0568     -0.0179      0.0040      0.0082
       116         0.0260      0.1118      0.0094      0.0133      0.0272
       117         0.0611     -0.0239      0.0220      0.0048      0.0098
       118        -0.0244     -0.0800      0.0175      0.0073      0.0149
       119         0.0664      0.0073      0.0447      0.0065      0.0132
       120        -0.0123      0.0775      0.0033      0.0062      0.0125
       121         0.0063     -0.0180     -0.0283      0.0012      0.0024
       122        -0.1526      0.0202     -0.0129      0.0239      0.0482
       123        -0.0824     -0.0296     -0.0086      0.0077      0.0156
       124         0.0119     -0.0054      0.0169      0.0005      0.0009
       125        -0.0571     -0.0756      0.0266      0.0097      0.0195
       126        -0.0216     -0.0372      0.0030      0.0019      0.0037
       127        -0.0671      0.0246      0.0033      0.0051      0.0103
       128         0.2444      0.1655      0.0132      0.0873      0.1745
       129         0.0111     -0.1004      0.0048      0.0102      0.0204
       130        -0.0141     -0.0815     -0.0019      0.0068      0.0136
       131         0.0999      0.2305     -0.0257      0.0638      0.1271
       132         0.0786      0.0608      0.0108      0.0100      0.0199
       133        -0.0547     -0.0818     -0.0261      0.0104      0.0206
       134        -0.0124      0.0208      0.0058      0.0006      0.0012
       135        -0.0046      0.0499     -0.0412      0.0042      0.0083
       136         0.0021      0.0154     -0.0311      0.0012      0.0024
       137        -0.0127      0.0396     -0.0143      0.0019      0.0038
       138        -0.0086      0.0562      0.0357      0.0045      0.0089
       139         0.0207     -0.0199      0.0299      0.0017      0.0034
       140        -0.0917     -0.0289      0.0504      0.0118      0.0231
       141         0.0421      0.0194      0.0314      0.0031      0.0061
       142         0.0280      0.0389     -0.0378      0.0037      0.0073
       143         0.0084      0.0469      0.0355      0.0035      0.0069
       144         0.0299     -0.0175     -0.0156      0.0014      0.0028
       145         0.0797     -0.0019     -0.0177      0.0067      0.0129
       146         0.0363      0.0106     -0.0117      0.0016      0.0030
       147        -0.0224      0.0167      0.0342      0.0019      0.0038
       148        -0.0019      0.0112      0.0728      0.0054      0.0105
       149        -0.0356      0.0210     -0.0357      0.0030      0.0057
       150        -0.0111     -0.0361     -0.0014      0.0014      0.0028
 Ground to excited state transition magnetic dipole moments (Au):
       state          X           Y           Z
         1         0.0308      0.3396      1.4304
         2         0.0536     -0.0747     -0.4032
         3        -0.0179     -0.0966     -0.3496
         4        -0.1338      0.0514      0.1680
         5         0.0215     -0.0221     -0.2931
         6        -0.0350      0.2725      0.1662
         7        -0.2091      0.0911     -0.1795
         8        -0.0268      0.1086      1.1998
         9         0.0397      0.2052     -2.2460
        10         0.0315      0.3307     -0.1701
        11         0.0074     -0.1962      0.2450
        12        -0.0378     -0.0168      2.0355
        13        -0.0520     -0.0574      0.6305
        14         0.0237     -0.4980     -1.6436
        15        -0.1361      0.5451      0.2503
        16        -0.2274      0.1384      0.7980
        17        -0.0563      0.0934     -1.5188
        18         0.0769      0.3210      2.2577
        19         0.1779      0.1843     -1.7330
        20        -0.0435      0.3251     -0.9519
        21        -0.0604     -0.0041      0.4254
        22        -0.0022      0.4436      0.1936
        23        -0.1293     -0.1407     -0.8727
        24        -0.0114      0.1916      0.2753
        25        -0.1116     -0.3339      0.0238
        26         0.1004      0.0469     -0.2022
        27        -0.1910     -0.0129      0.0700
        28         0.0107     -0.0564     -0.4256
        29        -0.1761     -0.0090      1.3613
        30         0.1523      0.2586     -3.7348
        31         0.1312     -0.0233      2.7989
        32        -0.1255     -0.0995     -0.5410
        33         0.2101      0.2664     -0.6550
        34        -0.1385      0.1542     -0.3843
        35        -0.0386     -0.1925      3.4586
        36        -0.0377      0.3012      1.6540
        37         0.0385     -0.2303     -0.3263
        38        -0.0952     -0.3265     -0.5758
        39        -0.6153      0.1788      0.5586
        40        -0.1804     -0.0067     -0.6177
        41         0.0546      0.1432      0.6675
        42        -0.1939      0.2459      0.3218
        43        -0.3207     -0.3242      0.1400
        44         0.2379     -0.1446      0.3175
        45         0.1269     -0.2626     -0.2922
        46         0.0236      0.0808      0.0451
        47         0.1179     -0.2100      0.0047
        48        -0.1558     -0.0627     -0.2004
        49        -0.2178     -0.0628      0.6006
        50        -0.1363      0.0712     -0.3340
        51         0.0644      0.2415     -0.0266
        52        -0.0183      0.3876      0.0551
        53         0.0967     -0.1748     -0.8708
        54        -0.0715      0.1426      0.7530
        55        -0.7484      0.5003      0.3707
        56         0.3333     -0.2409     -0.4298
        57         0.4252     -0.4181      1.1026
        58        -0.1493     -0.2478     -0.8038
        59        -0.1892     -0.4036      0.2333
        60         0.1445     -0.1662     -1.0651
[...]
    41  H    0.000005   0.000600  -0.000220   0.000010   0.000053   0.004542
    42  H   -0.004877   0.000017  -0.000001   0.000000   0.000000  -0.000000
    43  H    0.009276  -0.000003   0.000001   0.000000   0.000000   0.000000
    44  H   -0.047941  -0.000006   0.000006   0.000000   0.000000   0.000000
    45  H    0.423858   0.001566  -0.002747   0.000000   0.000000   0.000000
    46  H    0.001497   0.425649  -0.042168  -0.000000   0.000022  -0.000033
    47  H    0.002700   0.405095  -0.035162   0.000000   0.000001   0.000002
    48  H    0.003035  -0.032138   0.409913  -0.000000  -0.000001   0.000000
    49  H    0.000303  -0.044967   0.420689  -0.000000   0.000025   0.000004
    50  H   -0.000014  -0.046904   0.418037   0.000000   0.000039  -0.000000
              31         32         33         34         35         36
     1  C    0.000975  -0.000040   0.000001  -0.000002   0.000019   0.013650
     2  C    0.003103   0.000009  -0.000000   0.000000   0.000003   0.001967
     3  C   -0.022375   0.000000   0.000000  -0.000000  -0.000000  -0.000281
     4  C    0.415009  -0.000000   0.000000  -0.000000   0.000000   0.000027
     5  C    0.000284   0.000378   0.000019   0.000027  -0.000497  -0.030951
     6  S    0.000219  -0.002870  -0.000169   0.000006  -0.000153   0.000005
     7  C    0.000003  -0.061067   0.010336  -0.002177   0.005388  -0.000455
     8  C   -0.000001   0.016514  -0.002635   0.010759  -0.037779   0.009114
     9  N    0.000001  -0.000031   0.000020  -0.000085  -0.002270  -0.021764
    10  C    0.000000   0.446044  -0.051561   0.008168  -0.000863  -0.000016
    11  C   -0.000000  -0.046386   0.441754  -0.044753   0.004769   0.000010
    12  C    0.000000   0.009131  -0.046205   0.437805  -0.027402  -0.000032
    13  C   -0.000000  -0.004851   0.009132  -0.048709   0.426164   0.001367
    14  C    0.000000   0.000010  -0.000002  -0.000010   0.000412   0.407980
    15  C    0.000000  -0.000001   0.000000   0.000004  -0.001371  -0.036618
    16  C   -0.054430  -0.000000  -0.000000   0.000000   0.000000   0.000000
    17  C   -0.001146  -0.000000   0.000000  -0.000000   0.000000   0.000000
    18  S   -0.000066  -0.000000   0.000000  -0.000000   0.000000  -0.000000
    19  C    0.000021  -0.000000   0.000000  -0.000000  -0.000000   0.000000
    20  C   -0.000308  -0.000000   0.000000  -0.000000   0.000000   0.000000
    21  N   -0.001246   0.000000  -0.000000   0.000000  -0.000000   0.000000
    22  C   -0.000002   0.000000   0.000000  -0.000000   0.000000   0.000000
    23  C    0.000001  -0.000000   0.000000   0.000000  -0.000000  -0.000000
    24  C   -0.000001  -0.000000  -0.000000   0.000000   0.000000   0.000000
    25  C    0.000079   0.000000   0.000000   0.000000   0.000000   0.000000
    26  C   -0.000076  -0.000000   0.000000  -0.000000   0.000000   0.000000
    27  C   -0.009177  -0.000000  -0.000000   0.000000   0.000000  -0.000000
    28  H    0.000032  -0.000001   0.000000  -0.000000  -0.000004   0.000024
    29  H    0.004225  -0.000003  -0.000000  -0.000000   0.000000   0.000025
    30  H    0.003525  -0.000000   0.000000   0.000000   0.000000  -0.000012
    31  H    0.478620   0.000000   0.000000   0.000000  -0.000000  -0.000000
    32  H    0.000000   0.467187  -0.004951  -0.000086   0.000011  -0.000000
    33  H    0.000000  -0.004951   0.475510  -0.004877  -0.000083   0.000000
    34  H    0.000000  -0.000086  -0.004877   0.473373  -0.004396  -0.000000
    35  H   -0.000000   0.000011  -0.000083  -0.004396   0.449375   0.000407
    36  H   -0.000000  -0.000000   0.000000  -0.000000   0.000407   0.509646
    37  H    0.000000   0.000002  -0.000001  -0.000016  -0.001604  -0.021623
    38  H    0.000000   0.000000  -0.000000  -0.000000   0.000016  -0.004335
    39  H    0.000000   0.000000  -0.000000   0.000000   0.000062  -0.001037
    40  H   -0.000000  -0.000001   0.000000   0.000001   0.000362   0.004503
    41  H    0.003550   0.000000   0.000000   0.000000  -0.000000   0.000000
    42  H   -0.000000   0.000000   0.000000   0.000000  -0.000000   0.000000
    43  H    0.000000  -0.000000   0.000000   0.000000   0.000000   0.000000
    44  H    0.000000  -0.000000   0.000000   0.000000   0.000000  -0.000000
    45  H    0.000002   0.000000   0.000000   0.000000  -0.000000   0.000000
    46  H   -0.004095  -0.000000  -0.000000  -0.000000   0.000000   0.000000
    47  H    0.000709  -0.000000  -0.000000  -0.000000  -0.000000   0.000000
    48  H    0.000886  -0.000000   0.000000  -0.000000  -0.000000   0.000000
    49  H   -0.001591   0.000000  -0.000000   0.000000  -0.000000   0.000000
    50  H   -0.000794   0.000000   0.000000   0.000000   0.000000   0.000000
              37         38         39         40         41         42
     1  C    0.000152   0.003332  -0.000214   0.000744   0.000064   0.000000
     2  C    0.000079   0.000347  -0.000011   0.000007   0.001643  -0.000000
     3  C   -0.000001   0.000020   0.000010  -0.000005   0.000367   0.000000
     4  C   -0.000000   0.000000  -0.000000   0.000000  -0.022636   0.000000
     5  C    0.008642  -0.001309   0.000376  -0.001550   0.000016  -0.000000
     6  S   -0.000435  -0.000164   0.000019  -0.000025   0.000000   0.000000
     7  C   -0.001024  -0.000240  -0.000036   0.000401   0.000000   0.000000
     8  C   -0.022024  -0.001737   0.000016   0.000089   0.000000  -0.000000
     9  N   -0.019475   0.000022   0.006273  -0.000659   0.000000  -0.000000
    10  C    0.000308   0.000025  -0.000002  -0.000073   0.000000   0.000000
    11  C   -0.000261  -0.000007   0.000001   0.000040  -0.000000  -0.000000
    12  C    0.002272   0.000034   0.000005   0.000077   0.000000   0.000000
    13  C    0.002866   0.000442   0.000029   0.002536  -0.000000  -0.000000
    14  C    0.409579  -0.038156  -0.046484  -0.038272   0.000000   0.000000
    15  C   -0.033622   0.415790   0.418183   0.413817  -0.000000  -0.000000
    16  C    0.000000   0.000000   0.000000   0.000000   0.429816  -0.000017
    17  C   -0.000000  -0.000000   0.000000   0.000000  -0.063337   0.000347
    18  S    0.000000  -0.000000   0.000000  -0.000000  -0.004046  -0.002889
    19  C   -0.000000  -0.000000  -0.000000   0.000000   0.000642  -0.060703
    20  C    0.000000   0.000000   0.000000  -0.000000  -0.000098   0.016784
    21  N    0.000000   0.000000   0.000000  -0.000000   0.002543  -0.000054
    22  C   -0.000000  -0.000000   0.000000   0.000000  -0.000018   0.445495
    23  C   -0.000000   0.000000  -0.000000  -0.000000  -0.000002  -0.046763
    24  C    0.000000  -0.000000   0.000000   0.000000   0.000002   0.009164
    25  C    0.000000   0.000000   0.000000  -0.000000   0.000005  -0.004877
    26  C   -0.000000  -0.000000  -0.000000   0.000000   0.000600   0.000017
    27  C   -0.000000  -0.000000  -0.000000   0.000000  -0.000220  -0.000001
    28  H    0.000430   0.000091   0.000058   0.000187   0.000010   0.000000
    29  H    0.000002   0.000001   0.000000   0.000002   0.000053   0.000000
    30  H    0.000001   0.000010   0.000001  -0.000000   0.004542  -0.000000
    31  H    0.000000   0.000000   0.000000  -0.000000   0.003550  -0.000000
    32  H    0.000002   0.000000   0.000000  -0.000001   0.000000   0.000000
    33  H   -0.000001  -0.000000  -0.000000   0.000000   0.000000   0.000000
    34  H   -0.000016  -0.000000   0.000000   0.000001   0.000000   0.000000
    35  H   -0.001604   0.000016   0.000062   0.000362  -0.000000  -0.000000
    36  H   -0.021623  -0.004335  -0.001037   0.004503   0.000000   0.000000
    37  H    0.508559   0.004352  -0.001399  -0.004502   0.000000   0.000000
    38  H    0.004352   0.521318  -0.022640  -0.025419   0.000000   0.000000
    39  H   -0.001399  -0.022640   0.519970  -0.022386   0.000000   0.000000
    40  H   -0.004502  -0.025419  -0.022386   0.522937   0.000000   0.000000
    41  H    0.000000   0.000000   0.000000   0.000000   0.474067   0.000002
    42  H    0.000000   0.000000   0.000000   0.000000   0.000002   0.467105
    43  H    0.000000   0.000000   0.000000  -0.000000  -0.000000  -0.005011
    44  H   -0.000000   0.000000  -0.000000   0.000000   0.000000  -0.000086
    45  H    0.000000   0.000000   0.000000  -0.000000   0.000001   0.000011
    46  H    0.000000  -0.000000   0.000000  -0.000000   0.000259  -0.000001
    47  H    0.000000  -0.000000   0.000000   0.000000  -0.000003   0.000003
    48  H   -0.000000  -0.000000  -0.000000   0.000000   0.000013  -0.000001
    49  H    0.000000  -0.000000   0.000000  -0.000000  -0.000066   0.000000
    50  H    0.000000   0.000000   0.000000  -0.000000   0.000000   0.000000
              43         44         45         46         47         48
     1  C   -0.000000   0.000000   0.000000  -0.000028   0.000001  -0.000000
     2  C    0.000000   0.000000   0.000000  -0.000247   0.000003  -0.000007
     3  C   -0.000000  -0.000000   0.000000  -0.000053   0.000014  -0.000006
     4  C    0.000000  -0.000000  -0.000002  -0.011642   0.002305  -0.000792
     5  C    0.000000  -0.000000   0.000000   0.000001   0.000000   0.000000
     6  S    0.000000  -0.000000   0.000000  -0.000001  -0.000000  -0.000000
     7  C   -0.000000  -0.000000   0.000000  -0.000000   0.000000   0.000000
     8  C    0.000000   0.000000   0.000000  -0.000000   0.000000  -0.000000
     9  N   -0.000000  -0.000000   0.000000  -0.000000  -0.000000  -0.000000
    10  C    0.000000  -0.000000   0.000000  -0.000000   0.000000   0.000000
    11  C    0.000000   0.000000  -0.000000   0.000000  -0.000000   0.000000
    12  C    0.000000  -0.000000   0.000000  -0.000000   0.000000  -0.000000
    13  C    0.000000   0.000000   0.000000   0.000000   0.000000   0.000000
    14  C   -0.000000   0.000000  -0.000000  -0.000000  -0.000000  -0.000000
    15  C    0.000000  -0.000000   0.000000   0.000000  -0.000000   0.000000
    16  C    0.000000  -0.000000   0.000018   0.018266  -0.002373   0.001250
    17  C    0.000016   0.000026  -0.000484  -0.022235   0.008897  -0.001623
    18  S   -0.000155   0.000006  -0.000192   0.000210  -0.000384  -0.000008
    19  C    0.010498  -0.002015   0.004638  -0.000085  -0.000732   0.000368
    20  C   -0.002820   0.010508  -0.036203   0.008259  -0.017661  -0.001066
    21  N    0.000023  -0.000096  -0.002630  -0.031478  -0.020608  -0.000743
    22  C   -0.051740   0.007960  -0.000611  -0.000039   0.000283  -0.000099
    23  C    0.442215  -0.044339   0.004442   0.000014  -0.000231   0.000047
    24  C   -0.046545   0.437000  -0.025779  -0.000017   0.001511   0.000309
    25  C    0.009276  -0.047941   0.423858   0.001497   0.002700   0.003035
    26  C   -0.000003  -0.000006   0.001566   0.425649   0.405095  -0.032138
    27  C    0.000001   0.000006  -0.002747  -0.042168  -0.035162   0.409913
    28  H    0.000000   0.000000   0.000000  -0.000000   0.000000  -0.000000
    29  H    0.000000   0.000000   0.000000   0.000022   0.000001  -0.000001
    30  H    0.000000   0.000000   0.000000  -0.000033   0.000002   0.000000
    31  H    0.000000   0.000000   0.000002  -0.004095   0.000709   0.000886
    32  H   -0.000000  -0.000000   0.000000  -0.000000  -0.000000  -0.000000
    33  H    0.000000   0.000000   0.000000  -0.000000  -0.000000   0.000000
    34  H    0.000000   0.000000   0.000000  -0.000000  -0.000000  -0.000000
    35  H    0.000000   0.000000  -0.000000   0.000000  -0.000000  -0.000000
    36  H    0.000000  -0.000000   0.000000   0.000000   0.000000   0.000000
    37  H    0.000000  -0.000000   0.000000   0.000000   0.000000  -0.000000
    38  H    0.000000   0.000000   0.000000  -0.000000  -0.000000  -0.000000
    39  H    0.000000  -0.000000   0.000000   0.000000   0.000000  -0.000000
    40  H   -0.000000   0.000000  -0.000000  -0.000000   0.000000   0.000000
    41  H   -0.000000   0.000000   0.000001   0.000259  -0.000003   0.000013
    42  H   -0.005011  -0.000086   0.000011  -0.000001   0.000003  -0.000001
    43  H    0.474751  -0.004869  -0.000077   0.000000  -0.000000   0.000000
    44  H   -0.004869   0.472497  -0.004316  -0.000001  -0.000026   0.000005
    45  H   -0.000077  -0.004316   0.444798   0.000443  -0.001294   0.000227
    46  H    0.000000  -0.000001   0.000443   0.490302  -0.014494   0.003805
    47  H   -0.000000  -0.000026  -0.001294  -0.014494   0.496647  -0.004615
    48  H    0.000000   0.000005   0.000227   0.003805  -0.004615   0.511759
    49  H   -0.000000  -0.000001   0.000122  -0.002359   0.003998  -0.024723
    50  H   -0.000000   0.000000   0.000087  -0.001553  -0.000530  -0.020064
              49         50
     1  C    0.000007   0.000000
     2  C    0.000012   0.000055
     3  C    0.001184  -0.000144
     4  C    0.004019   0.000864
     5  C    0.000001   0.000000
     6  S    0.000001   0.000001
     7  C    0.000000   0.000000
     8  C   -0.000000   0.000000
     9  N    0.000000   0.000000
    10  C    0.000000   0.000000
    11  C   -0.000000  -0.000000
    12  C    0.000000   0.000000
    13  C   -0.000000  -0.000000
    14  C   -0.000000  -0.000000
    15  C    0.000000   0.000000
    16  C   -0.006232  -0.000145
    17  C    0.003820   0.000087
    18  S   -0.000102   0.000020
    19  C   -0.000133   0.000002
    20  C   -0.001470   0.000282
    21  N    0.001640   0.005997
    22  C    0.000030  -0.000003
    23  C   -0.000005   0.000001
    24  C    0.000017  -0.000009
    25  C    0.000303  -0.000014
    26  C   -0.044967  -0.046904
    27  C    0.420689   0.418037
    28  H   -0.000000   0.000000
    29  H    0.000025   0.000039
    30  H    0.000004  -0.000000
    31  H   -0.001591  -0.000794
    32  H    0.000000   0.000000
    33  H   -0.000000   0.000000
    34  H    0.000000   0.000000
    35  H   -0.000000   0.000000
    36  H    0.000000   0.000000
    37  H    0.000000   0.000000
    38  H   -0.000000   0.000000
    39  H    0.000000   0.000000
    40  H   -0.000000  -0.000000
    41  H   -0.000066   0.000000
    42  H    0.000000   0.000000
    43  H   -0.000000  -0.000000
    44  H   -0.000001   0.000000
    45  H    0.000122   0.000087
    46  H   -0.002359  -0.001553
    47  H    0.003998  -0.000530
    48  H   -0.024723  -0.020064
    49  H    0.519047  -0.022177
    50  H   -0.022177   0.514640
 Mulliken charges:
               1
     1  C   -0.329635
     2  C   -0.051938
     3  C   -0.309790
     4  C   -0.029061
     5  C    0.226737
     6  S    0.050802
     7  C    0.004810
     8  C    0.164939
     9  N   -0.000041
    10  C   -0.194320
    11  C   -0.174799
    12  C   -0.149467
    13  C   -0.266324
    14  C   -0.179315
    15  C   -0.393557
    16  C   -0.332083
    17  C    0.203859
    18  S    0.080541
    19  C   -0.009188
    20  C    0.175948
    21  N    0.010278
    22  C   -0.190055
    23  C   -0.170955
    24  C   -0.152776
    25  C   -0.266881
    26  C   -0.224426
    27  C   -0.394889
    28  H    0.182241
    29  H    0.168651
    30  H    0.154666
    31  H    0.184065
    32  H    0.181002
    33  H    0.173710
    34  H    0.174969
    35  H    0.189433
    36  H    0.168400
    37  H    0.168744
    38  H    0.148210
    39  H    0.149203
    40  H    0.147187
    41  H    0.172233
    42  H    0.181474
    43  H    0.174440
    44  H    0.175689
    45  H    0.194123
    46  H    0.181802
    47  H    0.175945
    48  H    0.154268
    49  H    0.148904
    50  H    0.152224
 Sum of Mulliken charges =   1.00000
 Mulliken charges with hydrogens summed into heavy atoms:
               1
     1  C   -0.147395
     2  C    0.116713
     3  C   -0.155123
     4  C    0.155004
     5  C    0.226737
     6  S    0.050802
     7  C    0.004810
     8  C    0.164939
     9  N   -0.000041
    10  C   -0.013318
    11  C   -0.001090
    12  C    0.025502
    13  C   -0.076892
    14  C    0.157830
    15  C    0.051043
    16  C   -0.159850
    17  C    0.203859
    18  S    0.080541
    19  C   -0.009188
    20  C    0.175948
    21  N    0.010278
    22  C   -0.008581
    23  C    0.003485
    24  C    0.022914
    25  C   -0.072759
    26  C    0.133321
    27  C    0.060507
 Electronic spatial extent (au):  <R**2>=          23491.7765
 Charge=              1.0000 electrons
 Dipole moment (field-independent basis, Debye):
    X=             -0.8520    Y=             -0.2205    Z=             -1.0398  Tot=              1.3622
 Quadrupole moment (field-independent basis, Debye-Ang):
   XX=            -15.9693   YY=           -137.5693   ZZ=           -180.8980
   XY=            -21.0903   XZ=              1.1804   YZ=             -0.8436
 Traceless Quadrupole moment (field-independent basis, Debye-Ang):
   XX=             95.5095   YY=            -26.0904   ZZ=            -69.4191
   XY=            -21.0903   XZ=              1.1804   YZ=             -0.8436
 Octapole moment (field-independent basis, Debye-Ang**2):
  XXX=            -35.6216  YYY=             -6.1683  ZZZ=             -2.6351  XYY=            -30.9729
  XXY=             -4.5141  XXZ=              7.0416  XZZ=             -0.7437  YZZ=              2.5220
  YYZ=             -4.7306  XYZ=             32.2648
 Hexadecapole moment (field-independent basis, Debye-Ang**3):
 XXXX=         -20366.8620 YYYY=          -2434.2006 ZZZZ=           -357.3994 XXXY=           -336.7385
 XXXZ=            222.0188 YYYX=            -99.0621 YYYZ=            -15.9517 ZZZX=             -3.4695
 ZZZY=              4.7949 XXYY=          -4348.7915 XXZZ=          -5391.4924 YYZZ=           -529.8399
 XXYZ=            -27.0058 YYXZ=            -17.7684 ZZXY=            -46.2380
 N-N= 2.425764353859D+03 E-N=-9.040302430206D+03  KE= 1.789121728350D+03
 Unable to Open any file for archive entry.
 1\1\GINC-CN04\SP\RCAM-B3LYP TD-FC\def2TZVP\C23H23N2S2(1+)\2100011873\0
 4-Nov-2023\0\\# td=(nstates=150) CAM-b3lyp/def2TZVP scrf(smd, solvent=
 ethanol)\\A-3\\1,1\C,0,-2.428041,1.066524,-0.253176\C,0,-1.163701,0.47
 9343,-0.188922\C,0,0.041805,1.173916,-0.256816\C,0,1.28645,0.541332,-0
 .181046\C,0,-3.632364,0.360929,-0.172103\S,0,-3.731682,-1.38124,0.0728
 53\C,0,-5.492381,-1.31615,0.079346\C,0,-5.937414,0.002523,-0.10246\N,0
 ,-4.878726,0.909623,-0.261587\C,0,-6.386349,-2.371189,0.240698\C,0,-7.
 751214,-2.085245,0.223608\C,0,-8.201765,-0.770406,0.05133\C,0,-7.30698
 6,0.285734,-0.111525\C,0,-5.109277,2.349928,-0.473641\C,0,-5.164583,3.
 142776,0.833251\C,0,2.499506,1.22923,-0.203687\C,0,3.82211,0.764058,-0
 .127091\S,0,5.094002,1.944187,0.17203\C,0,6.326179,0.693711,0.140374\C
 ,0,5.740783,-0.561555,-0.088266\N,0,4.346445,-0.488644,-0.256376\C,0,7
 .702092,0.835001,0.309547\C,0,8.493059,-0.31093,0.250826\C,0,7.913914,
 -1.567173,0.028296\C,0,6.538273,-1.709565,-0.142327\C,0,3.573454,-1.67
 863,-0.651238\C,0,3.11126,-2.522112,0.538719\H,0,-2.480232,2.144966,-0
 .359543\H,0,-1.101764,-0.60405,-0.075964\H,0,0.014895,2.256753,-0.3706
 16\H,0,1.271155,-0.53799,-0.061902\H,0,-6.030956,-3.387372,0.377927\H,
 0,-8.46785,-2.890478,0.348789\H,0,-9.267265,-0.563876,0.046694\H,0,-7.
 675558,1.298131,-0.23269\H,0,-4.320988,2.718242,-1.133807\H,0,-6.04347
 ,2.442277,-1.031819\H,0,-4.221825,3.066705,1.383681\H,0,-5.350379,4.19
 9206,0.614515\H,0,-5.968923,2.780771,1.480961\H,0,2.426074,2.31429,-0.
 229676\H,0,8.144449,1.810753,0.482525\H,0,9.567045,-0.22672,0.381606\H
 ,0,8.54404,-2.450028,-0.00972\H,0,6.108776,-2.691785,-0.303762\H,0,2.7
 35494,-1.334144,-1.259472\H,0,4.216087,-2.264286,-1.313807\H,0,3.96372
 ,-2.884064,1.121248\H,0,2.464779,-1.9518,1.212975\H,0,2.552692,-3.3918
 03,0.177306\\Version=ES64L-G16RevC.02\State=1-A\HF=-1795.8888201\RMSD=
 8.535e-09\PG=C01 [X(C23H23N2S2)]\\@
 The archive entry for this job was punched.


 IF YOU GET CONFUSED, LOGIC OUT YOUR DILEMMA

           --  PICKER X-RAY CORP.    DIGITAL PRINTER MANUAL CA. 1964
 Job cpu time:       3 days 21 hours 46 minutes  1.9 seconds.
 Elapsed time:       0 days  3 hours  3 minutes  1.1 seconds.
 File lengths (MBytes):  RWF=  37904 Int=      0 D2E=      0 Chk=   3984 Scr=     32
 Normal termination of Gaussian 16 at Sat Nov  4 05:22:41 2023.
