 Entering Gaussian System, Link 0=g16
 Initial command:
 /nfs-share/home/2100011873/Gaussian16_AVX2/g16/l1.exe "/nfs-share/home/2100011873/GaussTmp/Gau-152373.inp" -scrdir="/nfs-share/home/2100011873/GaussTmp/"
 Entering Link 1 = /nfs-share/home/2100011873/Gaussian16_AVX2/g16/l1.exe PID=    152374.
  
 Copyright (c) 1988-2021, Gaussian, Inc.  All Rights Reserved.
  
 This is part of the Gaussian(R) 16 program.  It is based on
 the Gaussian(R) 09 system (copyright 2009, Gaussian, Inc.),
 the Gaussian(R) 03 system (copyright 2003, Gaussian, Inc.),
 the Gaussian(R) 98 system (copyright 1998, Gaussian, Inc.),
 the Gaussian(R) 94 system (copyright 1995, Gaussian, Inc.),
 the Gaussian 92(TM) system (copyright 1992, Gaussian, Inc.),
 the Gaussian 90(TM) system (copyright 1990, Gaussian, Inc.),
 the Gaussian 88(TM) system (copyright 1988, Gaussian, Inc.),
 the Gaussian 86(TM) system (copyright 1986, Carnegie Mellon
 University), and the Gaussian 82(TM) system (copyright 1983,
 Carnegie Mellon University). Gaussian is a federally registered
 trademark of Gaussian, Inc.
  
 This software contains proprietary and confidential information,
 including trade secrets, belonging to Gaussian, Inc.
  
 This software is provided under written license and may be
 used, copied, transmitted, or stored only in accord with that
 written license.
  
 The following legend is applicable only to US Government
 contracts under FAR:
  
                    RESTRICTED RIGHTS LEGEND
  
 Use, reproduction and disclosure by the US Government is
 subject to restrictions as set forth in subparagraphs (a)
 and (c) of the Commercial Computer Software - Restricted
 Rights clause in FAR 52.227-19.
  
 Gaussian, Inc.
 340 Quinnipiac St., Bldg. 40, Wallingford CT 06492
  
  
 ---------------------------------------------------------------
 Warning -- This program may not be used in any manner that
 competes with the business of Gaussian, Inc. or will provide
 assistance to any competitor of Gaussian, Inc.  The licensee
 of this program is prohibited from giving any competitor of
 Gaussian, Inc. access to this program.  By using this program,
 the user acknowledges that Gaussian, Inc. is engaged in the
 business of creating and licensing software in the field of
 computational chemistry and represents and warrants to the
 licensee that it is not a competitor of Gaussian, Inc. and that
 it will not use this program in any manner prohibited above.
 ---------------------------------------------------------------
  

 Cite this work as:
 Gaussian 16, Revision C.02,
 M. J. Frisch, G. W. Trucks, H. B. Schlegel, G. E. Scuseria, 
 M. A. Robb, J. R. Cheeseman, G. Scalmani, V. Barone, 
 G. A. Petersson, H. Nakatsuji, X. Li, M. Caricato, A. V. Marenich, 
 J. Bloino, B. G. Janesko, R. Gomperts, B. Mennucci, H. P. Hratchian, 
 J. V. Ortiz, A. F. Izmaylov, J. L. Sonnenberg, D. Williams-Young, 
 F. Ding, F. Lipparini, F. Egidi, J. Goings, B. Peng, A. Petrone, 
 T. Henderson, D. Ranasinghe, V. G. Zakrzewski, J. Gao, N. Rega, 
 G. Zheng, W. Liang, M. Hada, M. Ehara, K. Toyota, R. Fukuda, 
 J. Hasegawa, M. Ishida, T. Nakajima, Y. Honda, O. Kitao, H. Nakai, 
 T. Vreven, K. Throssell, J. A. Montgomery, Jr., J. E. Peralta, 
 F. Ogliaro, M. J. Bearpark, J. J. Heyd, E. N. Brothers, K. N. Kudin, 
 V. N. Staroverov, T. A. Keith, R. Kobayashi, J. Normand, 
 K. Raghavachari, A. P. Rendell, J. C. Burant, S. S. Iyengar, 
 J. Tomasi, M. Cossi, J. M. Millam, M. Klene, C. Adamo, R. Cammi, 
 J. W. Ochterski, R. L. Martin, K. Morokuma, O. Farkas, 
 J. B. Foresman, and D. J. Fox, Gaussian, Inc., Wallingford CT, 2019.
 
 ******************************************
 Gaussian 16:  ES64L-G16RevC.02  7-Dec-2021
                 4-Nov-2023 
 ******************************************
 %nprocshared=32
 Will use up to   32 processors via shared memory.
 %mem=128GB
 ----------------------------------------------------------------
 # td=(nstates=150) CAM-b3lyp/def2TZVP scrf(smd, solvent=ethanol)
 ----------------------------------------------------------------
 1/38=1,172=1/1;
 2/12=2,17=6,18=5,40=1/2;
 3/5=44,7=101,11=9,25=1,30=1,70=32201,72=4,74=-40/1,2,3,8;
 4//1;
 5/5=2,38=5,53=4/2;
 8/6=1,10=1,108=150/1;
 9/41=150,42=1,70=2/14;
 6/7=2,8=2,9=2,10=2/1;
 99/5=1,9=1/99;
 ---
 A-1
 ---
 Symbolic Z-matrix:
 Charge =  1 Multiplicity = 1
 C                    -1.25921   0.2167   -0.03937 
 C                     0.        0.82894  -0.00012 
 C                     1.25921   0.21668   0.03925 
 N                     2.43346   0.90485   0.146 
 S                    -1.55756  -1.51215   0.05388 
 C                    -3.29767  -1.25882  -0.02728 
 C                    -3.5899    0.10887  -0.1183 
 N                    -2.43347   0.90486  -0.14611 
 S                     1.55755  -1.51217  -0.05392 
 C                     3.29766  -1.25885   0.0273 
 C                     3.5899    0.10884   0.11825 
 C                    -4.30157  -2.22442  -0.00362 
 C                    -5.62465  -1.79213  -0.06698 
 C                    -5.92564  -0.42569  -0.14901 
 C                    -4.92039   0.53827  -0.17427 
 C                     4.30156  -2.22445   0.00372 
 C                     5.62464  -1.79215   0.06707 
 C                     5.92564  -0.42571   0.14902 
 C                     4.92038   0.53826   0.17421 
 C                    -2.51035   2.37353  -0.25723 
 C                    -2.56643   3.07379   1.10152 
 C                     2.51034   2.3735    0.2573 
 C                     2.56651   3.07393  -1.10136 
 H                     0.00001   1.90904  -0.00021 
 H                    -4.06058  -3.28031   0.06397 
 H                    -6.42724  -2.52213  -0.04909 
 H                    -6.96206  -0.10651  -0.19134 
 H                    -5.17675   1.59021  -0.22813 
 H                     4.06057  -3.28035  -0.06382 
 H                     6.42723  -2.52216   0.04923 
 H                     6.96205  -0.10653   0.19134 
 H                     5.17673   1.5902    0.22802 
 H                    -1.65749   2.70849  -0.85213 
 H                    -3.39812   2.59717  -0.85222 
 H                    -3.44119   2.75206   1.67457 
 H                    -1.67384   2.86336   1.69908 
 H                    -2.63423   4.15636   0.9543 
 H                     1.65744   2.70838   0.85218 
 H                     3.39807   2.59706   0.85237 
 H                     3.44133   2.75234  -1.67437 
 H                     1.67399   2.86351  -1.69903 
 H                     2.63421   4.15649  -0.95399 
 
                          Input orientation:                          
 ---------------------------------------------------------------------
 Center     Atomic      Atomic             Coordinates (Angstroms)
 Number     Number       Type             X           Y           Z
 ---------------------------------------------------------------------
      1          6           0       -1.259214    0.216698   -0.039367
      2          6           0        0.000003    0.828935   -0.000122
      3          6           0        1.259209    0.216684    0.039249
      4          7           0        2.433464    0.904848    0.145998
      5         16           0       -1.557561   -1.512152    0.053882
      6          6           0       -3.297665   -1.258824   -0.027283
      7          6           0       -3.589904    0.108866   -0.118299
      8          7           0       -2.433474    0.904863   -0.146106
      9         16           0        1.557549   -1.512171   -0.053923
     10          6           0        3.297657   -1.258850    0.027304
     11          6           0        3.589900    0.108842    0.118251
     12          6           0       -4.301571   -2.224422   -0.003624
     13          6           0       -5.624645   -1.792125   -0.066975
     14          6           0       -5.925643   -0.425687   -0.149009
     15          6           0       -4.920394    0.538274   -0.174272
     16          6           0        4.301563   -2.224450    0.003718
     17          6           0        5.624635   -1.792149    0.067066
     18          6           0        5.925635   -0.425707    0.149021
     19          6           0        4.920384    0.538258    0.174213
     20          6           0       -2.510348    2.373529   -0.257226
     21          6           0       -2.566433    3.073786    1.101522
     22          6           0        2.510339    2.373497    0.257299
     23          6           0        2.566508    3.073929   -1.101357
     24          1           0        0.000014    1.909040   -0.000214
     25          1           0       -4.060576   -3.280313    0.063971
     26          1           0       -6.427238   -2.522132   -0.049094
     27          1           0       -6.962056   -0.106514   -0.191342
     28          1           0       -5.176748    1.590213   -0.228130
     29          1           0        4.060566   -3.280345   -0.063815
     30          1           0        6.427230   -2.522156    0.049231
     31          1           0        6.962048   -0.106532    0.191339
     32          1           0        5.176733    1.590201    0.228019
     33          1           0       -1.657488    2.708489   -0.852128
     34          1           0       -3.398115    2.597174   -0.852215
     35          1           0       -3.441185    2.752064    1.674572
     36          1           0       -1.673838    2.863356    1.699082
     37          1           0       -2.634230    4.156364    0.954302
     38          1           0        1.657436    2.708379    0.852183
     39          1           0        3.398074    2.597059    0.852370
     40          1           0        3.441334    2.752344   -1.674368
     41          1           0        1.673988    2.863510   -1.699033
     42          1           0        2.634214    4.156493   -0.953990
 ---------------------------------------------------------------------
                    Distance matrix (angstroms):
                    1          2          3          4          5
     1  C    0.000000
     2  C    1.400715   0.000000
     3  C    2.519650   1.400715   0.000000
     4  N    3.760822   2.439026   1.365225   0.000000
     5  S    1.756880   2.812403   3.305039   4.666761   0.000000
     6  C    2.516465   3.903087   4.790266   6.128405   1.760320
     7  C    2.334518   3.663318   4.852870   6.081480   2.605334
     8  N    1.365229   2.439034   3.760832   4.875696   2.578600
     9  S    3.305050   2.812405   1.756880   2.578600   3.116975
    10  C    4.790278   3.903091   2.516468   2.332918   4.861894
    11  C    4.852874   3.663319   2.334522   1.404186   5.397047
    12  C    3.900805   5.275087   6.073147   7.428015   2.835529
    13  C    4.805530   6.205730   7.171753   8.500126   4.078500
    14  C    4.711713   6.058839   7.215967   8.469476   4.505742
    15  C    3.677751   4.932050   6.191648   7.369951   3.945244
    16  C    6.073162   5.275092   3.900810   3.647265   5.902476
    17  C    7.171762   6.205730   4.805531   4.178947   7.187664
    18  C    7.215970   6.058835   4.711714   3.737064   7.562251
    19  C    6.191643   4.932042   3.677748   2.513952   6.795766
    20  C    2.502942   2.958671   4.353095   5.173093   4.012868
    21  C    3.342664   3.583234   4.891523   5.533199   4.811050
    22  C    4.353082   2.958669   2.502941   1.474865   5.629161
    23  C    4.891599   3.583248   3.342733   2.505695   6.274923
    24  H    2.109789   1.080105   2.109786   2.636562   3.759458
    25  H    4.481896   5.777398   6.366295   7.726245   3.064568
    26  H    5.848911   7.248550   8.160293   9.502331   4.974376
    27  H    5.714015   7.027225   8.230846   9.455816   5.589680
    28  H    4.155628   5.237393   6.586320   7.650165   4.775219
    29  H    6.366315   5.777405   4.481901   4.495256   5.890985
    30  H    8.160306   7.248551   5.848913   5.263448   8.048417
    31  H    8.230848   7.027220   5.714015   4.640368   8.635879
    32  H    6.586305   5.237376   4.155620   2.828774   7.416578
    33  H    2.651080   2.646869   3.938371   4.580968   4.317945
    34  H    3.301861   3.924275   5.305856   6.153675   4.592952
    35  H    3.758546   4.283083   5.585350   6.345096   4.935404
    36  H    3.193574   3.134949   4.285170   4.808092   4.676032
    37  H    4.289407   4.349930   5.614024   6.075132   5.839696
    38  H    3.938297   2.646851   2.651036   2.086538   5.365293
    39  H    5.305812   3.924270   3.301832   2.071958   6.487027
    40  H    5.585506   4.283148   3.758687   2.782584   6.794242
    41  H    4.285298   3.134967   3.193643   2.795943   5.715071
    42  H    5.614027   4.349894   4.289436   3.438527   7.121820
                    6          7          8          9         10
     6  C    0.000000
     7  C    1.401522   0.000000
     8  N    2.332914   1.404178   0.000000
     9  S    4.861892   5.397053   4.666778   0.000000
    10  C    6.595548   7.023556   6.128425   1.760325   0.000000
    11  C    7.023549   7.183700   6.081494   2.605336   1.401520
    12  C    1.393114   2.442100   3.647261   5.902467   7.660389
    13  C    2.387639   2.785062   4.178945   7.187660   8.938722
    14  C    2.759566   2.396324   3.737060   7.562252   9.262533
    15  C    2.425782   1.399188   2.513951   6.795775   8.414669
    16  C    7.660396   8.230097   7.428039   2.835538   1.393114
    17  C    8.938723   9.410417   8.500143   4.078506   2.387638
    18  C    9.262528   9.534291   8.469488   4.505748   2.759567
    19  C    8.414656   8.526133   7.369955   3.945246   2.425783
    20  C    3.723806   2.512656   1.474868   5.629190   6.856242
    21  C    4.536564   3.365443   2.505690   6.274813   7.369751
    22  C    6.856213   6.517867   5.173095   4.012865   3.723803
    23  C    7.369865   6.903580   5.533279   4.811178   4.536676
    24  H    4.572831   4.017721   2.636573   3.759453   4.572826
    25  H    2.162586   3.426556   4.495252   5.890972   7.630940
    26  H    3.375004   3.870065   5.263445   8.048408   9.806901
    27  H    3.844801   3.379813   4.640365   8.635880  10.326538
    28  H    3.418816   2.173597   2.828778   7.416596   8.944157
    29  H    7.630953   8.367760   7.726273   3.064577   2.162585
    30  H    9.806908  10.358249   9.502352   4.974385   3.375004
    31  H   10.326533  10.558691   9.455825   5.589685   3.844802
    32  H    8.944135   8.897652   7.650157   4.775217   3.418816
    33  H    4.371513   3.321261   2.086549   5.365404   6.408326
    34  H    3.944531   2.601364   2.071965   6.487110   7.776621
    35  H    4.359373   3.197343   2.782535   6.794022   8.013296
    36  H    4.754947   3.815940   2.795972   5.714904   6.671071
    37  H    5.543277   4.294884   3.438526   7.121785   8.085243
    38  H    6.408212   5.935813   4.580916   4.317875   4.371459
    39  H    7.776538   7.480985   6.153652   4.592893   3.944471
    40  H    8.013518   7.671221   6.345245   4.935643   4.359588
    41  H    6.671261   6.147792   4.808235   4.676166   4.755039
    42  H    8.085273   7.471366   6.075133   5.839784   5.543378
                   11         12         13         14         15
    11  C    0.000000
    12  C    8.230084   0.000000
    13  C    9.410410   1.393348   0.000000
    14  C    9.534291   2.427796   1.401600   0.000000
    15  C    8.526141   2.836292   2.436851   1.392977   0.000000
    16  C    2.442096   8.603137   9.935870  10.385308   9.628542
    17  C    2.785055   9.935865  11.250079  11.632834  10.802164
    18  C    2.396320  10.385298  11.632829  11.855025  10.893582
    19  C    1.399185   9.628524  10.802152  10.893574   9.846946
    20  C    6.517884   4.941047   5.204586   4.417189   3.030407
    21  C    6.903488   5.683578   5.864737   5.009434   3.687493
    22  C    2.512658   8.222594   9.145246   8.897545   7.666165
    23  C    3.365489   8.743458   9.583497   9.234225   7.958815
    24  H    4.017714   5.965665   6.733489   6.370754   5.110745
    25  H    8.367742   1.085151   2.162906   3.416537   3.921435
    26  H   10.358237   2.146895   1.085074   2.157930   3.413551
    27  H   10.558693   3.405724   2.155324   1.085272   2.141127
    28  H    8.897671   3.920176   3.415669   2.151966   1.084064
    29  H    3.426553   8.428756   9.798884  10.386563   9.759697
    30  H    3.870059  10.733062  12.074524  12.531079  11.755201
    31  H    3.379809  11.462660  12.701685  12.896134  11.905540
    32  H    2.173594  10.219748  11.322408  11.290204  10.159742
    33  H    5.935898   5.660808   6.050647   5.341777   3.976918
    34  H    7.481040   4.978366   4.983973   4.002572   2.648775
    35  H    7.671044   5.321844   5.333867   4.426746   3.241473
    36  H    6.147627   5.974083   6.356205   5.684284   4.410849
    37  H    7.471359   6.664239   6.735734   5.748555   4.426150
    38  H    3.321245   7.782975   8.609767   8.266066   7.002201
    39  H    2.601337   9.124908  10.075693   9.852485   8.630730
    40  H    3.197445   9.354794  10.267808  10.008339   8.779003
    41  H    3.815945   8.029245   8.809574   8.424713   7.156640
    42  H    4.294941   9.472296  10.216732   9.742460   8.412584
                   16         17         18         19         20
    16  C    0.000000
    17  C    1.393347   0.000000
    18  C    2.427797   1.401600   0.000000
    19  C    2.836294   2.436852   1.392980   0.000000
    20  C    8.222629   9.145271   8.897560   7.666168   0.000000
    21  C    8.743332   9.583372   9.234118   7.958721   1.529608
    22  C    4.941043   5.204578   4.417184   3.030400   5.046983
    23  C    5.683698   5.864816   5.009454   3.687470   5.193995
    24  H    5.965658   6.733475   6.370738   5.110725   2.565877
    25  H    8.428751   9.798875  10.386550   9.759676   5.871312
    26  H   10.733060  12.074519  12.531070  11.755185   6.273184
    27  H   11.462670  12.701690  12.896135  11.905534   5.096338
    28  H   10.219774  11.322429  11.290221  10.159752   2.779230
    29  H    1.085152   2.162908   3.416539   3.921438   8.670675
    30  H    2.146896   1.085075   2.157928   3.413552  10.195192
    31  H    3.405724   2.155324   1.085272   2.141130   9.801949
    32  H    3.920178   3.415672   2.151971   1.084064   7.742111
    33  H    7.783100   8.609877   8.266150   7.002262   1.092464
    34  H    9.125005  10.075775   9.852543   8.630766   1.091860
    35  H    9.354549  10.267572  10.008139   8.778830   2.177519
    36  H    8.029038   8.809365   8.424525   7.156470   2.183305
    37  H    9.472255  10.216694   9.742440   8.412575   2.159085
    38  H    5.660751   6.050606   5.341765   3.976921   4.325891
    39  H    4.978298   4.983916   4.002547   2.648771   6.015864
    40  H    5.322072   5.334024   4.426794   3.241453   6.129789
    41  H    5.974182   6.356247   5.684255   4.410775   4.452814
    42  H    6.664360   6.735838   5.748621   4.426177   5.489167
                   21         22         23         24         25
    21  C    0.000000
    22  C    5.193913   0.000000
    23  C    5.585674   1.529610   0.000000
    24  H    3.026071   2.565885   3.025950   0.000000
    25  H    6.609353   8.670632   9.254870   6.589529   0.000000
    26  H    6.895218  10.195163  10.644746   7.806872   2.487712
    27  H    5.577392   9.801939  10.086470   7.250476   4.307757
    28  H    3.283703   7.742124   7.932336   5.191576   5.005316
    29  H    9.254734   5.871307   6.609501   6.589525   8.122147
    30  H   10.644616   6.273177   6.895302   7.806859  10.515184
    31  H   10.086367   5.096333   5.577380   7.250458  11.471153
    32  H    7.932254   2.779221   3.283590   5.191548  10.443979
    33  H    2.185491   4.325948   4.247094   2.027853   6.517654
    34  H    2.176222   6.015886   5.988831   3.570254   5.985241
    35  H    1.094113   6.129650   6.625840   3.918858   6.274333
    36  H    1.094570   4.452644   5.085994   2.569067   6.790786
    37  H    1.094644   5.489173   5.696058   3.591769   7.624390
    38  H    4.246971   1.092463   2.185488   2.027948   8.317534
    39  H    5.988713   1.091862   2.176225   3.570306   9.528722
    40  H    6.625870   2.177525   1.094111   3.918754   9.782302
    41  H    5.086108   2.183307   1.094571   2.568888   8.587198
    42  H    5.695973   2.159083   1.094644   3.591621  10.057959
                   26         27         28         29         30
    26  H    0.000000
    27  H    2.478200   0.000000
    28  H    4.301995   2.463242   0.000000
    29  H   10.515186  11.471167  10.444008   0.000000
    30  H   12.854844  13.607578  12.314252   2.487716   0.000000
    31  H   13.607568  13.929362  12.263982   4.307759   2.478198
    32  H   12.314228  12.263968  10.363525   5.005319   4.301998
    33  H    7.124239   6.041467   3.745011   8.317675   9.671337
    34  H    6.002323   4.521986   2.137051   9.528837  11.115644
    35  H    6.301165   4.904043   2.825306   9.782035  11.306845
    36  H    7.392862   6.352880   4.195881   8.586982   9.866765
    37  H    7.745710   6.181805   3.801010  10.057907  11.293000
    38  H    9.671220   9.127333   7.008812   6.517584   7.124196
    39  H   11.115553  10.757831   8.701080   5.985162   6.002265
    40  H   11.307092  10.890499   8.815526   6.274605   6.301327
    41  H    9.866980   9.256102   7.121617   6.790924   7.392911
    42  H   11.293041  10.528213   8.253714   7.624530   7.745823
                   31         32         33         34         35
    31  H    0.000000
    32  H    2.463249   0.000000
    33  H    9.127407   7.008842   0.000000
    34  H   10.757881   8.701087   1.744183   0.000000
    35  H   10.890308   8.815382   3.093168   2.531896   0.000000
    36  H    9.255920   7.121466   2.555958   3.090809   1.771017
    37  H   10.528198   8.253716   2.512679   2.505613   1.772575
    38  H    6.041469   3.745044   3.727385   5.336285   5.164704
    39  H    4.521977   2.137102   5.336332   7.006696   6.890247
    40  H    4.904025   2.825113   5.164880   6.890434   7.654049
    41  H    6.352813   4.195720   3.440932   5.149200   6.128509
    42  H    6.181853   3.800974   4.530541   6.231439   6.766996
                   36         37         38         39         40
    36  H    0.000000
    37  H    1.774520   0.000000
    38  H    3.440733   4.530506   0.000000
    39  H    5.148993   6.231413   1.744194   0.000000
    40  H    6.128415   6.767101   3.093167   2.531875   0.000000
    41  H    4.770233   5.222298   2.555982   3.090813   1.771010
    42  H    5.222098   5.603399   2.512646   2.505644   1.772575
                   41         42
    41  H    0.000000
    42  H    1.774522   0.000000
 Stoichiometry    C19H19N2S2(1+)
 Framework group  C1[X(C19H19N2S2)]
 Deg. of freedom   120
 Full point group                 C1      NOp   1
 Largest Abelian subgroup         C1      NOp   1
 Largest concise Abelian subgroup C1      NOp   1
                         Standard orientation:                         
 ---------------------------------------------------------------------
 Center     Atomic      Atomic             Coordinates (Angstroms)
 Number     Number       Type             X           Y           Z
 ---------------------------------------------------------------------
      1          6           0       -1.259214    0.216698   -0.039367
      2          6           0        0.000003    0.828935   -0.000122
      3          6           0        1.259209    0.216684    0.039249
      4          7           0        2.433464    0.904848    0.145998
      5         16           0       -1.557561   -1.512152    0.053882
      6          6           0       -3.297665   -1.258824   -0.027283
      7          6           0       -3.589904    0.108866   -0.118299
      8          7           0       -2.433474    0.904863   -0.146106
      9         16           0        1.557549   -1.512171   -0.053923
     10          6           0        3.297657   -1.258850    0.027304
     11          6           0        3.589900    0.108842    0.118251
     12          6           0       -4.301571   -2.224422   -0.003624
     13          6           0       -5.624645   -1.792125   -0.066975
     14          6           0       -5.925643   -0.425687   -0.149009
     15          6           0       -4.920394    0.538274   -0.174272
     16          6           0        4.301563   -2.224450    0.003718
     17          6           0        5.624635   -1.792149    0.067066
     18          6           0        5.925635   -0.425707    0.149021
     19          6           0        4.920384    0.538258    0.174213
     20          6           0       -2.510348    2.373529   -0.257226
     21          6           0       -2.566433    3.073786    1.101522
     22          6           0        2.510339    2.373497    0.257299
     23          6           0        2.566508    3.073929   -1.101357
     24          1           0        0.000014    1.909040   -0.000214
     25          1           0       -4.060576   -3.280313    0.063971
     26          1           0       -6.427238   -2.522132   -0.049094
     27          1           0       -6.962056   -0.106514   -0.191342
     28          1           0       -5.176748    1.590213   -0.228130
     29          1           0        4.060566   -3.280345   -0.063815
     30          1           0        6.427230   -2.522156    0.049231
     31          1           0        6.962048   -0.106532    0.191339
     32          1           0        5.176733    1.590201    0.228019
     33          1           0       -1.657488    2.708489   -0.852128
     34          1           0       -3.398115    2.597174   -0.852215
     35          1           0       -3.441185    2.752064    1.674572
     36          1           0       -1.673838    2.863356    1.699082
     37          1           0       -2.634230    4.156364    0.954302
     38          1           0        1.657436    2.708379    0.852183
     39          1           0        3.398074    2.597059    0.852370
     40          1           0        3.441334    2.752344   -1.674368
     41          1           0        1.673988    2.863510   -1.699033
     42          1           0        2.634214    4.156493   -0.953990
 ---------------------------------------------------------------------
 Rotational constants (GHZ):           0.5197631           0.1187459           0.0985340
 Standard basis: def2TZVP (5D, 7F)
 There are   954 symmetry adapted cartesian basis functions of A   symmetry.
 There are   839 symmetry adapted basis functions of A   symmetry.
   839 basis functions,  1361 primitive gaussians,   954 cartesian basis functions
    89 alpha electrons       89 beta electrons
       nuclear repulsion energy      2127.8579715027 Hartrees.
 NAtoms=   42 NActive=   42 NUniq=   42 SFac= 1.00D+00 NAtFMM=   60 NAOKFM=F Big=F
 Integral buffers will be    131072 words long.
 Raffenetti 1 integral format.
 Two-electron integral symmetry is turned on.
 ------------------------------------------------------------------------------
 Polarizable Continuum Model (PCM)
 =================================
 Model                : PCM.
 Atomic radii         : SMD-Coulomb.
 Polarization charges : Total charges.
 Charge compensation  : None.
 Solution method      : On-the-fly selection.
 Cavity type          : VdW (van der Waals Surface) (Alpha=1.000).
 Cavity algorithm     : GePol (No added spheres)
                        Default sphere list used, NSphG=   42.
                        Lebedev-Laikov grids with approx.  5.0 points / Ang**2.
                        Smoothing algorithm: York/Karplus (Gamma=1.0000).
                        Polarization charges: spherical gaussians, with
                                              point-specific exponents (IZeta= 3).
                        Self-potential: point-specific (ISelfS= 7).
                        Self-field    : sphere-specific E.n sum rule (ISelfD= 2).
 Solvent              : Ethanol, Eps=  24.852000 Eps(inf)=   1.852593
 ------------------------------------------------------------------------------
 ------------------------------------------------------------------------------
 Atomic radii for non-electrostatic terms: SMD-CDS.
 ------------------------------------------------------------------------------
 Nuclear repulsion after PCM non-electrostatic terms =     2127.8526197948 Hartrees.
 One-electron integrals computed using PRISM.
   1 Symmetry operations used in ECPInt.
 ECPInt:  NShTT=   55611 NPrTT=  173757 LenC2=   45262 LenP2D=   98157.
 LDataN:  DoStor=T MaxTD1= 6 Len=  172
 NBasis=   839 RedAO= T EigKep=  6.97D-06  NBF=   839
 NBsUse=   839 1.00D-06 EigRej= -1.00D+00 NBFU=   839
 ExpMin= 9.52D-02 ExpMax= 6.07D+04 ExpMxC= 2.07D+03 IAcc=3 IRadAn=         5 AccDes= 0.00D+00
 Harris functional with IExCor=20419 and IRadAn=       5 diagonalized for initial guess.
 HarFok:  IExCor=20419 AccDes= 0.00D+00 IRadAn=         5 IDoV= 1 UseB2=F ITyADJ=14
 ICtDFT=  3500011 ScaDFX=  1.000000  1.000000  1.000000  1.000000
 FoFCou: FMM=F IPFlag=           0 FMFlag=      100000 FMFlg1=           0
         NFxFlg=           0 DoJE=T BraDBF=F KetDBF=T FulRan=T
         wScrn=  0.000000 ICntrl=       500 IOpCl=  0 I1Cent=   200000004 NGrid=           0
         NMat0=    1 NMatS0=      1 NMatT0=    0 NMatD0=    1 NMtDS0=    0 NMtDT0=    0
 Petite list used in FoFCou.
 Requested convergence on RMS density matrix=1.00D-08 within 128 cycles.
 Requested convergence on MAX density matrix=1.00D-06.
 Requested convergence on             energy=1.00D-06.
 No special actions if energy rises.
 Inv3:  Mode=1 IEnd=    30470907.
 Iteration    1 A*A^-1 deviation from unit magnitude is 4.00D-15 for   3042.
 Iteration    1 A*A^-1 deviation from orthogonality  is 1.75D-15 for    529    503.
 Iteration    1 A^-1*A deviation from unit magnitude is 3.55D-15 for   3042.
 Iteration    1 A^-1*A deviation from orthogonality  is 6.09D-09 for   2629   2551.
 Iteration    2 A*A^-1 deviation from unit magnitude is 2.44D-15 for    154.
 Iteration    2 A*A^-1 deviation from orthogonality  is 4.46D-15 for   1512    703.
 Iteration    2 A^-1*A deviation from unit magnitude is 1.78D-15 for   2290.
 Iteration    2 A^-1*A deviation from orthogonality  is 1.48D-15 for   2293   2174.
 Error on total polarization charges =  0.06212
 SCF Done:  E(RCAM-B3LYP) =  -1641.11793553     A.U. after   13 cycles
            NFock= 13  Conv=0.81D-08     -V/T= 2.0036
 SMD-CDS (non-electrostatic) energy       (kcal/mol) =      -3.36
 (included in total energy above)
 DoSCS=F DFT=T ScalE2(SS,OS)=  1.000000  1.000000
 ExpMin= 9.52D-02 ExpMax= 6.07D+04 ExpMxC= 2.07D+03 IAcc=3 IRadAn=         5 AccDes= 0.00D+00
 HarFok:  IExCor=  205 AccDes= 0.00D+00 IRadAn=         5 IDoV=-2 UseB2=F ITyADJ=14
 ICtDFT= 12500011 ScaDFX=  1.000000  1.000000  1.000000  1.000000
 GSVD:  LWork=       -1209 too small for GESVD, short by        5270 words or        5270 for optimal perf.
 Range of M.O.s used for correlation:    32   839
 NBasis=   839 NAE=    89 NBE=    89 NFC=    31 NFV=     0
 NROrb=    808 NOA=    58 NOB=    58 NVA=   750 NVB=   750

 **** Warning!!: The largest alpha MO coefficient is  0.49641499D+02

 NEqPCM:  Using non-equilibrium solvation (IEInf=1, Eps=  24.8520, EpsInf=   1.8526)
 Inv3:  Mode=1 IEnd=    30470907.
 Iteration    1 A*A^-1 deviation from unit magnitude is 3.55D-15 for   3019.
 Iteration    1 A*A^-1 deviation from orthogonality  is 2.11D-15 for   2531   2043.
 Iteration    1 A^-1*A deviation from unit magnitude is 3.22D-15 for   1790.
 Iteration    1 A^-1*A deviation from orthogonality  is 2.88D-15 for   1067    948.
 Orbital symmetries:
       Occupied  (A) (A) (A) (A) (A) (A) (A) (A) (A) (A) (A) (A)
                 (A) (A) (A) (A) (A) (A) (A) (A) (A) (A) (A) (A)
                 (A) (A) (A) (A) (A) (A) (A) (A) (A) (A) (A) (A)
                 (A) (A) (A) (A) (A) (A) (A) (A) (A) (A) (A) (A)
                 (A) (A) (A) (A) (A) (A) (A) (A) (A) (A) (A) (A)
                 (A) (A) (A) (A) (A) (A) (A) (A) (A) (A) (A) (A)
                 (A) (A) (A) (A) (A) (A) (A) (A) (A) (A) (A) (A)
                 (A) (A) (A) (A) (A)
       Virtual   (A) (A) (A) (A) (A) (A) (A) (A) (A) (A) (A) (A)
                 (A) (A) (A) (A) (A) (A) (A) (A) (A) (A) (A) (A)
                 (A) (A) (A) (A) (A) (A) (A) (A) (A) (A) (A) (A)
                 (A) (A) (A) (A) (A) (A) (A) (A) (A) (A) (A) (A)
                 (A) (A) (A) (A) (A) (A) (A) (A) (A) (A) (A) (A)
                 (A) (A) (A) (A) (A) (A) (A) (A) (A) (A) (A) (A)
                 (A) (A) (A) (A) (A) (A) (A) (A) (A) (A) (A) (A)
                 (A) (A) (A) (A) (A) (A) (A) (A) (A) (A) (A) (A)
                 (A) (A) (A) (A) (A) (A) (A) (A) (A) (A) (A) (A)
                 (A) (A) (A) (A) (A) (A) (A) (A) (A) (A) (A) (A)
                 (A) (A) (A) (A) (A) (A) (A) (A) (A) (A) (A) (A)
                 (A) (A) (A) (A) (A) (A) (A) (A) (A) (A) (A) (A)
                 (A) (A) (A) (A) (A) (A) (A) (A) (A) (A) (A) (A)
                 (A) (A) (A) (A) (A) (A) (A) (A) (A) (A) (A) (A)
                 (A) (A) (A) (A) (A) (A) (A) (A) (A) (A) (A) (A)
                 (A) (A) (A) (A) (A) (A) (A) (A) (A) (A) (A) (A)
                 (A) (A) (A) (A) (A) (A) (A) (A) (A) (A) (A) (A)
                 (A) (A) (A) (A) (A) (A) (A) (A) (A) (A) (A) (A)
                 (A) (A) (A) (A) (A) (A) (A) (A) (A) (A) (A) (A)
                 (A) (A) (A) (A) (A) (A) (A) (A) (A) (A) (A) (A)
                 (A) (A) (A) (A) (A) (A) (A) (A) (A) (A) (A) (A)
                 (A) (A) (A) (A) (A) (A) (A) (A) (A) (A) (A) (A)
                 (A) (A) (A) (A) (A) (A) (A) (A) (A) (A) (A) (A)
                 (A) (A) (A) (A) (A) (A) (A) (A) (A) (A) (A) (A)
                 (A) (A) (A) (A) (A) (A) (A) (A) (A) (A) (A) (A)
                 (A) (A) (A) (A) (A) (A) (A) (A) (A) (A) (A) (A)
                 (A) (A) (A) (A) (A) (A) (A) (A) (A) (A) (A) (A)
                 (A) (A) (A) (A) (A) (A) (A) (A) (A) (A) (A) (A)
                 (A) (A) (A) (A) (A) (A) (A) (A) (A) (A) (A) (A)
                 (A) (A) (A) (A) (A) (A) (A) (A) (A) (A) (A) (A)
                 (A) (A) (A) (A) (A) (A) (A) (A) (A) (A) (A) (A)
                 (A) (A) (A) (A) (A) (A) (A) (A) (A) (A) (A) (A)
                 (A) (A) (A) (A) (A) (A) (A) (A) (A) (A) (A) (A)
                 (A) (A) (A) (A) (A) (A) (A) (A) (A) (A) (A) (A)
                 (A) (A) (A) (A) (A) (A) (A) (A) (A) (A) (A) (A)
                 (A) (A) (A) (A) (A) (A) (A) (A) (A) (A) (A) (A)
                 (A) (A) (A) (A) (A) (A) (A) (A) (A) (A) (A) (A)
                 (A) (A) (A) (A) (A) (A) (A) (A) (A) (A) (A) (A)
                 (A) (A) (A) (A) (A) (A) (A) (A) (A) (A) (A) (A)
                 (A) (A) (A) (A) (A) (A) (A) (A) (A) (A) (A) (A)
                 (A) (A) (A) (A) (A) (A) (A) (A) (A) (A) (A) (A)
                 (A) (A) (A) (A) (A) (A) (A) (A) (A) (A) (A) (A)
                 (A) (A) (A) (A) (A) (A) (A) (A) (A) (A) (A) (A)
                 (A) (A) (A) (A) (A) (A) (A) (A) (A) (A) (A) (A)
                 (A) (A) (A) (A) (A) (A) (A) (A) (A) (A) (A) (A)
                 (A) (A) (A) (A) (A) (A) (A) (A) (A) (A) (A) (A)
                 (A) (A) (A) (A) (A) (A) (A) (A) (A) (A) (A) (A)
                 (A) (A) (A) (A) (A) (A) (A) (A) (A) (A) (A) (A)
                 (A) (A) (A) (A) (A) (A) (A) (A) (A) (A) (A) (A)
                 (A) (A) (A) (A) (A) (A) (A) (A) (A) (A) (A) (A)
                 (A) (A) (A) (A) (A) (A) (A) (A) (A) (A) (A) (A)
                 (A) (A) (A) (A) (A) (A) (A) (A) (A) (A) (A) (A)
                 (A) (A) (A) (A) (A) (A) (A) (A) (A) (A) (A) (A)
                 (A) (A) (A) (A) (A) (A) (A) (A) (A) (A) (A) (A)
                 (A) (A) (A) (A) (A) (A) (A) (A) (A) (A) (A) (A)
                 (A) (A) (A) (A) (A) (A) (A) (A) (A) (A) (A) (A)
                 (A) (A) (A) (A) (A) (A) (A) (A) (A) (A) (A) (A)
                 (A) (A) (A) (A) (A) (A) (A) (A) (A) (A) (A) (A)
                 (A) (A) (A) (A) (A) (A) (A) (A) (A) (A) (A) (A)
                 (A) (A) (A) (A) (A) (A) (A) (A) (A) (A) (A) (A)
                 (A) (A) (A) (A) (A) (A) (A) (A) (A) (A) (A) (A)
                 (A) (A) (A) (A) (A) (A) (A) (A) (A) (A) (A) (A)
                 (A) (A) (A) (A) (A) (A)
   600 initial guesses have been made.
 Convergence on wavefunction:    0.001000000000000
 Iteration     1 Dimension   600 NMult     0 NNew    600
 CISAX will form   224 AO SS matrices at one time.
 New state      2 was old state      3
 New state      3 was old state      2
 New state      6 was old state      7
 New state      7 was old state     10
 New state      8 was old state      6
 New state      9 was old state      8
 New state     10 was old state     13
 New state     11 was old state      9
 New state     12 was old state     14
 New state     13 was old state     11
 New state     14 was old state     17
 New state     15 was old state     18
 New state     16 was old state     24
 New state     17 was old state     12
 New state     18 was old state     20
 New state     19 was old state     23
 New state     20 was old state     27
 New state     21 was old state     33
 New state     22 was old state     16
 New state     23 was old state     19
 New state     24 was old state     34
 New state     25 was old state     39
 New state     26 was old state     22
 New state     27 was old state     30
 New state     28 was old state     32
 New state     29 was old state     60
 New state     30 was old state     59
 New state     31 was old state     35
 New state     32 was old state    146
 New state     33 was old state     28
 New state     34 was old state     15
 New state     35 was old state     50
 New state     36 was old state     21
 New state     37 was old state     31
 New state     38 was old state     64
 New state     39 was old state     36
 New state     40 was old state     42
 New state     41 was old state     43
 New state     42 was old state     41
 New state     43 was old state     38
 New state     44 was old state     29
 New state     45 was old state     25
 New state     46 was old state     48
 New state     47 was old state     37
 New state     48 was old state     55
 New state     49 was old state     95
 New state     50 was old state     45
 New state     51 was old state     90
 New state     52 was old state     44
 New state     53 was old state     46
 New state     54 was old state    104
 New state     55 was old state     51
 New state     56 was old state     62
 New state     57 was old state     52
 New state     58 was old state     53
 New state     59 was old state     47
 New state     60 was old state     70
 New state     61 was old state     71
 New state     62 was old state     40
 New state     63 was old state     49
 New state     64 was old state     78
 New state     65 was old state     76
 New state     66 was old state     58
 New state     67 was old state     73
 New state     68 was old state     56
 New state     69 was old state     57
 New state     70 was old state     61
 New state     71 was old state     81
 New state     72 was old state    137
 New state     73 was old state    173
 New state     74 was old state     85
 New state     75 was old state     54
 New state     76 was old state    152
 New state     77 was old state    122
 New state     78 was old state     65
 New state     79 was old state     92
 New state     80 was old state     77
 New state     81 was old state     66
 New state     82 was old state     79
 New state     84 was old state     91
 New state     85 was old state     94
 New state     86 was old state     74
 New state     87 was old state     84
 New state     88 was old state    103
 New state     89 was old state    102
 New state     90 was old state     93
 New state     91 was old state     96
 New state     92 was old state    117
 New state     93 was old state    110
 New state     94 was old state     63
 New state     95 was old state    133
 New state     96 was old state     80
 New state     97 was old state    107
 New state     98 was old state    106
 New state     99 was old state    119
 New state    100 was old state    165
 New state    101 was old state    114
 New state    102 was old state    118
 New state    103 was old state    193
 New state    104 was old state     89
 New state    105 was old state     97
 New state    106 was old state    132
 New state    107 was old state    143
 New state    108 was old state    116
 New state    109 was old state     72
 New state    110 was old state     67
 New state    111 was old state    109
 New state    112 was old state    121
 New state    113 was old state     98
 New state    114 was old state    141
 New state    115 was old state    185
 New state    116 was old state    101
 New state    117 was old state    129
 New state    118 was old state    113
 New state    119 was old state    147
 New state    120 was old state    127
 New state    121 was old state    157
 New state    122 was old state    126
 New state    123 was old state    112
 New state    124 was old state    202
 New state    125 was old state    124
 New state    126 was old state    115
 New state    127 was old state    159
 New state    128 was old state    139
 New state    129 was old state     86
 New state    130 was old state     69
 New state    131 was old state    158
 New state    132 was old state    148
 New state    133 was old state    168
 New state    134 was old state    135
 New state    135 was old state    167
 New state    136 was old state    164
 New state    137 was old state    188
 New state    138 was old state    123
 New state    139 was old state    183
 New state    140 was old state    111
 New state    141 was old state    138
 New state    143 was old state    108
 New state    144 was old state    128
 New state    145 was old state    171
 New state    146 was old state    187
 New state    147 was old state    150
 New state    148 was old state    155
 New state    149 was old state    181
 New state    150 was old state    153
 Iteration     2 Dimension   900 NMult   600 NNew    300
 New state      7 was old state      8
 New state      8 was old state      7
 New state     10 was old state     11
 New state     11 was old state     10
 New state     14 was old state     16
 New state     15 was old state     17
 New state     16 was old state     18
 New state     17 was old state     15
 New state     18 was old state     19
 New state     19 was old state     14
 New state     21 was old state     22
 New state     22 was old state     23
 New state     23 was old state     21
 New state     24 was old state     26
 New state     25 was old state     30
 New state     26 was old state     24
 New state     27 was old state     25
 New state     28 was old state     33
 New state     29 was old state     27
 New state     30 was old state     28
 New state     31 was old state     37
 New state     32 was old state     29
 New state     33 was old state     31
 New state     34 was old state     32
 New state     35 was old state     34
 New state     37 was old state     35
 New state     38 was old state     39
 New state     39 was old state     38
 New state     46 was old state     51
 New state     47 was old state     46
 New state     49 was old state     47
 New state     50 was old state     55
 New state     51 was old state     49
 New state     53 was old state     50
 New state     55 was old state     58
 New state     56 was old state     53
 New state     57 was old state     56
 New state     58 was old state     59
 New state     59 was old state     57
 New state     61 was old state     62
 New state     62 was old state     63
 New state     63 was old state     61
 New state     64 was old state     66
 New state     66 was old state     64
 New state     69 was old state     70
 New state     70 was old state     69
 New state     71 was old state     72
 New state     72 was old state     73
 New state     73 was old state     71
 New state     74 was old state     75
 New state     75 was old state     80
 New state     77 was old state     74
 New state     78 was old state     77
 New state     79 was old state     78
 New state     80 was old state     79
 New state     81 was old state     96
 New state     82 was old state     84
 New state     83 was old state     82
 New state     84 was old state     81
 New state     85 was old state     83
 New state     86 was old state     87
 New state     87 was old state     85
 New state     88 was old state     86
 New state     89 was old state     88
 New state     90 was old state     89
 New state     91 was old state     90
 New state     93 was old state     91
 New state     94 was old state     93
 New state     95 was old state     94
 New state     96 was old state     95
 New state     97 was old state     98
 New state     98 was old state    100
 New state     99 was old state    102
 New state    100 was old state     97
 New state    101 was old state     99
 New state    102 was old state    103
 New state    103 was old state    117
 New state    104 was old state    101
 New state    105 was old state    104
 New state    106 was old state    105
 New state    107 was old state    111
 New state    108 was old state    110
 New state    109 was old state    106
 New state    110 was old state    107
 New state    111 was old state    108
 New state    112 was old state    109
 New state    113 was old state    116
 New state    114 was old state    112
 New state    115 was old state    114
 New state    116 was old state    115
 New state    117 was old state    113
 New state    118 was old state    120
 New state    119 was old state    118
 New state    120 was old state    124
 New state    121 was old state    122
 New state    122 was old state    119
 New state    123 was old state    125
 New state    124 was old state    121
 New state    125 was old state    133
 New state    126 was old state    127
 New state    127 was old state    123
 New state    128 was old state    126
 New state    129 was old state    132
 New state    130 was old state    128
 New state    131 was old state    130
 New state    132 was old state    131
 New state    133 was old state    135
 New state    135 was old state    129
 New state    136 was old state    138
 New state    137 was old state    136
 New state    138 was old state    139
 New state    139 was old state    140
 New state    140 was old state    147
 New state    141 was old state    137
 New state    142 was old state    145
 New state    143 was old state    141
 New state    144 was old state    142
 New state    145 was old state    143
 New state    146 was old state    144
 New state    147 was old state    146
 Iteration     3 Dimension  1200 NMult   900 NNew    300
 New state    122 was old state    123
 New state    123 was old state    122
 New state    132 was old state    133
 New state    133 was old state    132
 New state    136 was old state    137
 New state    137 was old state    136
 New state    146 was old state    147
 New state    147 was old state    146
 No map to state    150
 Iteration     4 Dimension  1488 NMult  1200 NNew    288
 Iteration     5 Dimension  1554 NMult  1488 NNew     66
 Iteration     6 Dimension  1558 NMult  1554 NNew      4
 ***********************************************************************
 Excited states from <AA,BB:AA,BB> singles matrix:
 ***********************************************************************
 
 Ground to excited state transition densities written to RWF  633
 Ground to excited state transition electric dipole moments (Au):
       state          X           Y           Z        Dip. S.      Osc.
         1        -3.8862     -0.0000     -0.0293     15.1034      1.2294
         2        -0.0886      0.0000     -0.0487      0.0102      0.0011
         3        -0.0000      0.4513     -0.0000      0.2037      0.0232
         4        -0.2500     -0.0001     -0.0054      0.0625      0.0074
         5        -0.0000      0.4203      0.0000      0.1767      0.0217
         6        -0.6288      0.0001     -0.0600      0.3990      0.0502
         7        -0.0000      1.0057     -0.0000      1.0115      0.1284
         8        -0.0000     -0.1152      0.0000      0.0133      0.0017
         9         0.0001     -0.7897      0.0000      0.6236      0.0842
        10         1.3103      0.0000      0.0494      1.7192      0.2359
        11        -0.0002      0.0544     -0.0000      0.0030      0.0004
        12         0.3341      0.0001      0.0030      0.1116      0.0161
        13        -2.0831      0.0000     -0.0076      4.3393      0.6372
        14         0.0000      1.5476     -0.0001      2.3951      0.3587
        15         0.2526      0.0000     -0.0544      0.0668      0.0102
        16         0.0000     -0.0288     -0.0000      0.0008      0.0001
        17         0.9803     -0.0010     -0.0374      0.9624      0.1504
        18        -0.0037     -0.2813     -0.0001      0.0791      0.0124
        19         0.0010      0.0269      0.0002      0.0007      0.0001
        20         0.6615     -0.0001      0.2243      0.4879      0.0776
        21         0.0000     -0.4746     -0.0000      0.2252      0.0367
        22         0.1014      0.0001      0.0909      0.0185      0.0031
        23        -0.3177      0.0001     -0.1597      0.1265      0.0210
        24         2.0692      0.0001      0.0682      4.2863      0.7204
        25         0.0002     -0.5492      0.0000      0.3016      0.0517
        26         0.0129     -0.0000     -0.0791      0.0064      0.0011
        27         0.0138      0.0001      0.0090      0.0003      0.0000
        28         0.3866     -0.0002     -0.0039      0.1495      0.0265
        29         0.0001     -0.1081     -0.0000      0.0117      0.0021
        30        -0.1861     -0.0000      0.0914      0.0430      0.0077
        31         0.0001      0.9305     -0.0000      0.8659      0.1554
        32         0.0001     -0.3025     -0.0000      0.0915      0.0165
        33        -0.0925      0.0001      0.0205      0.0090      0.0016
        34         0.0001      0.0908     -0.0000      0.0082      0.0015
        35        -0.0004      0.2664     -0.0000      0.0710      0.0132
        36         0.5799      0.0002      0.0038      0.3363      0.0625
        37        -0.0000      0.0517      0.0000      0.0027      0.0005
        38         0.0000     -0.1591      0.0000      0.0253      0.0048
        39        -0.1065      0.0000     -0.0388      0.0128      0.0024
        40        -0.0001      0.0386     -0.0000      0.0015      0.0003
        41         0.1161     -0.0001     -0.1046      0.0244      0.0047
        42         0.0002      0.1497     -0.0002      0.0224      0.0043
        43         0.0920     -0.0001     -0.0855      0.0158      0.0030
        44        -0.2911      0.0004      0.0715      0.0898      0.0172
        45         0.0004      0.3679     -0.0001      0.1354      0.0260
        46         0.7630     -0.0003     -0.0214      0.5827      0.1123
        47         0.0004     -0.2786      0.0003      0.0776      0.0150
        48         0.2183      0.0002      0.1430      0.0681      0.0132
        49         0.0001      0.5379      0.0001      0.2894      0.0562
        50        -0.0002     -1.1386     -0.0000      1.2963      0.2524
        51         0.0001      0.4885     -0.0000      0.2386      0.0468
        52        -0.0002     -0.6388      0.0001      0.4080      0.0804
        53        -0.1766      0.0001     -0.3027      0.1228      0.0243
        54         0.1714     -0.0006     -0.2862      0.1113      0.0220
        55        -0.0008      0.2086     -0.0003      0.0435      0.0086
        56        -0.8291     -0.0002     -0.0523      0.6901      0.1374
        57         0.0001     -0.0687     -0.0000      0.0047      0.0009
        58        -0.4674     -0.0001      0.1432      0.2390      0.0478
        59         0.1139      0.0000      0.0346      0.0142      0.0029
        60         0.0360      0.0001     -0.0802      0.0077      0.0016
        61        -0.0001      0.2037      0.0000      0.0415      0.0084
        62         0.1223      0.0000      0.0640      0.0190      0.0039
        63        -0.0016      0.0556     -0.0001      0.0031      0.0006
        64        -0.7292     -0.0002     -0.0376      0.5332      0.1085
        65        -0.0003     -0.3826     -0.0000      0.1464      0.0299
        66        -0.3391      0.0006      0.0525      0.1178      0.0241
        67         0.0001     -0.2619      0.0001      0.0686      0.0141
        68        -0.1615     -0.0002     -0.0041      0.0261      0.0054
        69         0.0097      0.0006     -0.2994      0.0897      0.0186
        70         0.0001     -0.8063     -0.0003      0.6502      0.1349
        71        -0.0094     -0.0013      0.0514      0.0027      0.0006
        72         0.0000     -0.4331      0.0001      0.1876      0.0390
        73        -0.0332     -0.0017     -0.0032      0.0011      0.0002
        74        -0.0001     -0.0976     -0.0000      0.0095      0.0020
        75        -0.1653      0.0000     -0.1067      0.0387      0.0081
        76         0.0348      0.0000     -0.0389      0.0027      0.0006
        77        -0.0001     -0.1362     -0.0001      0.0185      0.0039
        78        -0.0000      0.0784     -0.0000      0.0061      0.0013
        79         0.0028     -0.0001     -0.0801      0.0064      0.0014
        80        -0.0004     -0.1312      0.0001      0.0172      0.0037
        81        -0.6946      0.0001      0.0552      0.4855      0.1034
        82        -0.0001     -0.2098     -0.0000      0.0440      0.0094
        83        -0.0742      0.0001      0.0869      0.0131      0.0028
        84        -0.0001      0.1316     -0.0000      0.0173      0.0037
        85         0.0528      0.0001      0.1710      0.0320      0.0069
        86         0.0781     -0.0000      0.0087      0.0062      0.0013
        87         0.0000      0.0908     -0.0000      0.0083      0.0018
        88         0.0000     -0.1485      0.0000      0.0220      0.0048
        89         0.0000      0.0185     -0.0000      0.0003      0.0001
        90         0.1218      0.0002      0.0580      0.0182      0.0040
        91        -0.0004      0.0481     -0.0002      0.0023      0.0005
        92         0.1254      0.0001     -0.0871      0.0233      0.0052
        93         0.0001     -0.0345     -0.0001      0.0012      0.0003
        94        -0.0000      0.4805     -0.0001      0.2309      0.0513
        95        -0.0813     -0.0003     -0.0665      0.0110      0.0024
        96        -0.0000     -0.5618     -0.0000      0.3157      0.0703
        97         0.0000      0.6246     -0.0000      0.3902      0.0876
        98         0.0528      0.0001      0.0060      0.0028      0.0006
        99        -0.0000      0.2342     -0.0001      0.0548      0.0124
       100         0.0144     -0.0000     -0.0231      0.0007      0.0002
       101         0.0000      0.0485     -0.0001      0.0024      0.0005
       102        -0.0665      0.0002      0.1342      0.0224      0.0051
       103        -0.0000      0.3931      0.0000      0.1545      0.0350
       104        -0.1352     -0.0000      0.0528      0.0211      0.0048
       105         0.1384      0.0000     -0.0213      0.0196      0.0045
       106         0.0002     -0.0182      0.0000      0.0003      0.0001
       107         0.0325      0.0002      0.1756      0.0319      0.0073
       108        -0.0000      0.3258     -0.0000      0.1062      0.0243
       109        -0.0661      0.0001     -0.0973      0.0138      0.0032
       110        -0.0001      0.0765      0.0001      0.0058      0.0013
       111         0.0548      0.0001     -0.0965      0.0123      0.0028
       112        -0.0916     -0.0003     -0.0031      0.0084      0.0019
       113        -0.0001      0.3113     -0.0000      0.0969      0.0223
       114        -0.0000     -0.1227     -0.0000      0.0150      0.0035
       115         0.0000      0.2340     -0.0001      0.0547      0.0127
       116         0.0208     -0.0004     -0.0767      0.0063      0.0015
       117        -0.0104      0.0000      0.0678      0.0047      0.0011
       118         0.0000     -0.0856      0.0000      0.0073      0.0017
       119        -0.0000     -0.1477      0.0000      0.0218      0.0051
       120         0.0001      0.1847      0.0001      0.0341      0.0080
       121         0.1187     -0.0002      0.2190      0.0620      0.0145
       122         0.0001      0.0145     -0.0000      0.0002      0.0000
       123        -0.1353     -0.0000     -0.0124      0.0184      0.0043
       124        -0.0372     -0.0001     -0.0745      0.0069      0.0016
       125         0.0002      0.0599      0.0000      0.0036      0.0008
       126         0.2015     -0.0002     -0.0496      0.0431      0.0101
       127        -0.0003     -0.1246      0.0001      0.0155      0.0037
       128         0.2027      0.0001     -0.0376      0.0425      0.0100
       129         0.0002      0.0857      0.0002      0.0073      0.0017
       130         0.1861     -0.0003      0.1041      0.0455      0.0108
       131         0.0764     -0.0000      0.1138      0.0188      0.0045
       132         0.0090     -0.0007      0.0104      0.0002      0.0000
       133        -0.0001     -0.1336     -0.0001      0.0178      0.0042
       134         0.0043     -0.0000     -0.1579      0.0250      0.0059
       135         0.0004      0.3223      0.0001      0.1039      0.0248
       136        -0.1102      0.0008     -0.0450      0.0142      0.0034
       137        -0.0000      0.0660      0.0001      0.0044      0.0010
       138         0.0001      0.3714      0.0000      0.1379      0.0330
       139         0.2736     -0.0003     -0.0066      0.0749      0.0179
       140         0.0001      0.1399     -0.0000      0.0196      0.0047
       141         0.0000     -0.3318     -0.0000      0.1101      0.0264
       142        -0.0143      0.0004     -0.0559      0.0033      0.0008
       143        -0.0000     -0.2793      0.0003      0.0780      0.0188
       144         0.1080     -0.0003     -0.2215      0.0608      0.0146
       145        -0.2079     -0.0001     -0.0498      0.0457      0.0110
       146         0.1000      0.0021      0.0587      0.0135      0.0033
       147        -0.0018      0.1109     -0.0012      0.0123      0.0030
       148         0.1399     -0.0000     -0.1748      0.0501      0.0121
       149         0.0001      0.1430     -0.0000      0.0204      0.0049
       150         0.2014     -0.0001     -0.0833      0.0475      0.0115
 Ground to excited state transition velocity dipole moments (Au):
       state          X           Y           Z        Dip. S.      Osc.
         1         0.4710      0.0000      0.0040      0.2218      1.2112
         2         0.0144      0.0000      0.0085      0.0003      0.0012
         3         0.0000     -0.0767     -0.0000      0.0059      0.0229
         4         0.0443      0.0000      0.0011      0.0020      0.0074
         5         0.0000     -0.0797     -0.0000      0.0064      0.0230
         6         0.1207     -0.0000      0.0109      0.0147      0.0519
         7         0.0000     -0.1942      0.0000      0.0377      0.1321
         8         0.0000      0.0228     -0.0000      0.0005      0.0018
         9        -0.0000      0.1634     -0.0000      0.0267      0.0878
        10        -0.2691     -0.0000     -0.0104      0.0725      0.2349
        11         0.0000     -0.0110      0.0000      0.0001      0.0004
        12        -0.0723     -0.0000      0.0011      0.0052      0.0161
        13         0.4596     -0.0000      0.0016      0.2112      0.6392
        14        -0.0000     -0.3498      0.0000      0.1223      0.3630
        15        -0.0571      0.0000      0.0125      0.0034      0.0100
        16        -0.0000      0.0054      0.0000      0.0000      0.0001
        17        -0.2272      0.0002      0.0091      0.0517      0.1470
        18         0.0009      0.0687      0.0000      0.0047      0.0134
        19        -0.0002     -0.0075     -0.0000      0.0001      0.0002
        20        -0.1578      0.0000     -0.0531      0.0277      0.0775
        21        -0.0000      0.1152      0.0000      0.0133      0.0362
        22        -0.0260     -0.0000     -0.0225      0.0012      0.0032
        23         0.0798     -0.0000      0.0375      0.0078      0.0208
        24        -0.5173     -0.0000     -0.0178      0.2679      0.7083
        25        -0.0001      0.1405     -0.0000      0.0197      0.0512
        26        -0.0036      0.0000      0.0233      0.0006      0.0014
        27        -0.0036     -0.0000      0.0009      0.0000      0.0000
        28        -0.1053      0.0001      0.0014      0.0111      0.0278
        29        -0.0000      0.0301      0.0000      0.0009      0.0023
        30         0.0503      0.0000     -0.0239      0.0031      0.0077
        31        -0.0000     -0.2496      0.0000      0.0623      0.1543
        32        -0.0000      0.0816     -0.0000      0.0067      0.0164
        33         0.0253     -0.0000     -0.0042      0.0007      0.0016
        34        -0.0000     -0.0247      0.0000      0.0006      0.0015
        35         0.0001     -0.0754      0.0000      0.0057      0.0136
        36        -0.1662     -0.0001      0.0001      0.0276      0.0660
        37         0.0000     -0.0135      0.0000      0.0002      0.0004
        38        -0.0000      0.0454     -0.0000      0.0021      0.0049
        39         0.0298     -0.0000      0.0105      0.0010      0.0024
        40         0.0000     -0.0108      0.0000      0.0001      0.0003
        41        -0.0328      0.0000      0.0298      0.0020      0.0046
        42        -0.0000     -0.0444      0.0000      0.0020      0.0046
        43        -0.0255      0.0000      0.0242      0.0012      0.0029
        44         0.0846     -0.0001     -0.0184      0.0075      0.0174
        45        -0.0001     -0.1048      0.0000      0.0110      0.0254
        46        -0.2223      0.0001      0.0062      0.0495      0.1140
        47        -0.0001      0.0794     -0.0001      0.0063      0.0145
        48        -0.0631     -0.0001     -0.0419      0.0057      0.0132
        49        -0.0000     -0.1529     -0.0000      0.0234      0.0535
        50         0.0000      0.3298      0.0000      0.1088      0.2483
        51        -0.0000     -0.1433      0.0000      0.0205      0.0465
        52         0.0001      0.1868     -0.0000      0.0349      0.0787
        53         0.0525     -0.0000      0.0787      0.0090      0.0201
        54        -0.0520      0.0002      0.0783      0.0088      0.0198
        55         0.0002     -0.0599      0.0001      0.0036      0.0080
        56         0.2513      0.0000      0.0133      0.0633      0.1413
        57        -0.0000      0.0208      0.0000      0.0004      0.0010
        58         0.1417      0.0000     -0.0382      0.0215      0.0478
        59        -0.0339     -0.0000     -0.0060      0.0012      0.0026
        60        -0.0111     -0.0000      0.0240      0.0007      0.0015
        61         0.0000     -0.0618     -0.0000      0.0038      0.0084
        62        -0.0405     -0.0000     -0.0185      0.0020      0.0043
        63         0.0005     -0.0167      0.0000      0.0003      0.0006
        64         0.2239      0.0001      0.0111      0.0503      0.1098
        65         0.0001      0.1158      0.0000      0.0134      0.0292
        66         0.1034     -0.0002     -0.0128      0.0108      0.0236
        67        -0.0000      0.0790     -0.0000      0.0062      0.0135
        68         0.0498      0.0001     -0.0015      0.0025      0.0054
        69         0.0003     -0.0002      0.0869      0.0075      0.0162
        70        -0.0000      0.2465      0.0001      0.0608      0.1301
        71         0.0015      0.0004     -0.0158      0.0003      0.0005
        72        -0.0000      0.1321     -0.0000      0.0175      0.0373
        73         0.0106      0.0005     -0.0003      0.0001      0.0002
        74         0.0000      0.0301      0.0000      0.0009      0.0019
        75         0.0503     -0.0000      0.0330      0.0036      0.0077
        76        -0.0103     -0.0000      0.0121      0.0003      0.0005
        77         0.0000      0.0436      0.0000      0.0019      0.0040
        78        -0.0000     -0.0247      0.0000      0.0006      0.0013
        79        -0.0019      0.0000      0.0160      0.0003      0.0005
        80         0.0001      0.0426     -0.0000      0.0018      0.0038
        81         0.2233     -0.0000     -0.0183      0.0502      0.1047
        82         0.0000      0.0667      0.0000      0.0044      0.0092
        83         0.0223     -0.0000     -0.0240      0.0011      0.0022
        84         0.0000     -0.0439      0.0000      0.0019      0.0040
        85        -0.0176     -0.0000     -0.0500      0.0028      0.0058
        86        -0.0259     -0.0000      0.0003      0.0007      0.0014
        87        -0.0000     -0.0290      0.0000      0.0008      0.0017
        88        -0.0000      0.0485     -0.0000      0.0024      0.0048
        89        -0.0000     -0.0086      0.0000      0.0001      0.0001
        90        -0.0396     -0.0000     -0.0193      0.0019      0.0039
        91         0.0001     -0.0142      0.0001      0.0002      0.0004
        92        -0.0424     -0.0000      0.0285      0.0026      0.0052
        93        -0.0000      0.0110      0.0000      0.0001      0.0002
        94        -0.0000     -0.1601      0.0000      0.0256      0.0513
        95         0.0272      0.0001      0.0185      0.0011      0.0022
        96         0.0000      0.1896      0.0000      0.0359      0.0717
        97        -0.0000     -0.2115      0.0000      0.0447      0.0886
        98        -0.0176     -0.0000     -0.0024      0.0003      0.0006
        99        -0.0000     -0.0793      0.0000      0.0063      0.0124
       100        -0.0032      0.0000      0.0087      0.0001      0.0002
       101        -0.0000     -0.0144      0.0000      0.0002      0.0004
       102         0.0242     -0.0001     -0.0439      0.0025      0.0049
       103         0.0000     -0.1302     -0.0000      0.0169      0.0332
       104         0.0464      0.0000     -0.0178      0.0025      0.0048
       105        -0.0494     -0.0000      0.0029      0.0025      0.0048
       106        -0.0001      0.0087     -0.0000      0.0001      0.0001
       107        -0.0115     -0.0001     -0.0515      0.0028      0.0054
       108         0.0000     -0.1113      0.0000      0.0124      0.0241
       109         0.0213     -0.0000      0.0340      0.0016      0.0031
       110         0.0000     -0.0250     -0.0000      0.0006      0.0012
       111        -0.0213     -0.0000      0.0327      0.0015      0.0030
       112         0.0282      0.0001      0.0031      0.0008      0.0016
       113         0.0000     -0.1094      0.0000      0.0120      0.0231
       114         0.0000      0.0445      0.0000      0.0020      0.0038
       115        -0.0000     -0.0801      0.0000      0.0064      0.0123
       116        -0.0093      0.0001      0.0208      0.0005      0.0010
       117         0.0009     -0.0000     -0.0192      0.0004      0.0007
       118        -0.0000      0.0280     -0.0000      0.0008      0.0015
       119         0.0000      0.0483      0.0000      0.0023      0.0045
       120        -0.0000     -0.0599     -0.0000      0.0036      0.0068
       121        -0.0394      0.0001     -0.0699      0.0064      0.0123
       122        -0.0000     -0.0051      0.0000      0.0000      0.0000
       123         0.0450      0.0000      0.0042      0.0020      0.0039
       124         0.0151      0.0000      0.0195      0.0006      0.0012
       125        -0.0001     -0.0197     -0.0000      0.0004      0.0007
       126        -0.0706      0.0001      0.0169      0.0053      0.0099
       127         0.0001      0.0425     -0.0000      0.0018      0.0034
       128        -0.0721     -0.0000      0.0060      0.0052      0.0099
       129        -0.0001     -0.0291     -0.0001      0.0008      0.0016
       130        -0.0655      0.0001     -0.0349      0.0055      0.0103
       131        -0.0288      0.0000     -0.0366      0.0022      0.0041
       132        -0.0016      0.0002     -0.0046      0.0000      0.0000
       133         0.0000      0.0484      0.0001      0.0023      0.0044
       134        -0.0022      0.0000      0.0511      0.0026      0.0049
       135        -0.0001     -0.1122     -0.0000      0.0126      0.0234
       136         0.0373     -0.0003      0.0138      0.0016      0.0029
       137         0.0000     -0.0261     -0.0000      0.0007      0.0013
       138        -0.0000     -0.1321      0.0000      0.0175      0.0325
       139        -0.0945      0.0001      0.0068      0.0090      0.0167
       140        -0.0000     -0.0507      0.0000      0.0026      0.0048
       141        -0.0000      0.1188      0.0000      0.0141      0.0261
       142         0.0058     -0.0001      0.0206      0.0005      0.0008
       143         0.0000      0.1003     -0.0001      0.0101      0.0186
       144        -0.0386      0.0001      0.0728      0.0068      0.0125
       145         0.0731      0.0000      0.0170      0.0056      0.0104
       146        -0.0379     -0.0008     -0.0211      0.0019      0.0035
       147         0.0007     -0.0395      0.0004      0.0016      0.0029
       148        -0.0519      0.0000      0.0561      0.0058      0.0107
       149        -0.0000     -0.0486      0.0000      0.0024      0.0043
       150        -0.0720      0.0000      0.0299      0.0061      0.0111
 Ground to excited state transition magnetic dipole moments (Au):
       state          X           Y           Z
         1        -0.0294     -0.0001     -0.7066
         2         0.2575      0.0000      0.2014
         3        -0.0000     -0.0523     -0.0000
         4        -0.0020     -0.0000     -0.5612
         5         0.0000      0.0350      0.0000
         6        -0.0511      0.0000      1.4879
         7        -0.0000      0.2106     -0.0001
         8         0.0000      0.4517      0.0001
         9        -0.0000     -0.0464     -0.0001
        10         0.1386      0.0000     -2.0146
        11         0.0000      0.2712      0.0002
        12        -0.3312      0.0000      0.0241
        13         0.0378     -0.0001     -1.7042
        14         0.0000      0.1303      0.0000
        15        -0.0767      0.0001      3.2152
        16         0.0000      0.1470      0.0002
        17         0.0834     -0.0003     -0.4145
        18        -0.0000     -0.0901      0.0016
        19        -0.0002     -0.1189     -0.0003
        20        -0.3108      0.0000     -0.3473
        21        -0.0000      0.0329      0.0000
        22        -0.1395     -0.0001      0.1885
        23         0.2025     -0.0000      0.6794
        24         0.1227     -0.0000     -3.2740
        25         0.0000     -0.1103     -0.0003
        26        -0.7735     -0.0000      0.1576
        27        -0.0651      0.0000     -0.2252
        28         0.0235      0.0000      1.5847
        29        -0.0001      0.2020      0.0001
        30         0.0657      0.0000     -0.5869
        31         0.0000      0.0665      0.0003
        32         0.0000     -0.1092     -0.0000
        33        -0.2220     -0.0001     -0.0421
        34         0.0001     -0.2323      0.0001
        35         0.0001      0.1326     -0.0009
        36        -0.1044      0.0002      1.1928
        37        -0.0000      0.4799      0.0001
        38        -0.0000      0.4317     -0.0001
        39        -0.0585      0.0004      0.4085
        40         0.0000     -0.4020      0.0003
        41        -0.4310     -0.0001      0.1708
        42        -0.0007      0.1343      0.0003
        43        -0.4538     -0.0002      0.0260
        44         0.3913      0.0003     -0.4627
        45        -0.0005      0.1636      0.0005
        46        -0.0011      0.0001      0.9840
        47         0.0010     -0.2516      0.0005
        48         0.5270      0.0004      0.2924
        49         0.0002      0.2383     -0.0000
        50        -0.0001      0.0054     -0.0001
        51         0.0000     -0.4881      0.0000
        52        -0.0003     -0.3284      0.0007
        53        -0.3218      0.0004      0.5726
        54         0.4491      0.0001     -0.7126
        55        -0.0001     -0.6616      0.0024
        56        -0.0193      0.0006      2.4075
        57         0.0001     -0.1547     -0.0001
        58        -0.1950      0.0002      1.6266
        59        -0.3250      0.0001     -0.3898
        60        -0.2745     -0.0001     -1.1413
        61         0.0000      0.0123      0.0005
        62        -0.3444      0.0001      1.1445
        63         0.0003      0.0954      0.0023
        64         0.0367     -0.0002      1.3367
        65         0.0000      0.2298      0.0011
        66        -0.0372     -0.0002      1.3984
        67         0.0000     -0.7539     -0.0008
        68        -0.1728     -0.0005      1.3972
        69         0.4089     -0.0002      0.4597
        70         0.0003      0.0237      0.0025
        71         0.0599     -0.0000     -1.0034
        72         0.0004     -0.0857     -0.0004
        73        -0.1740     -0.0003     -0.1739
        74         0.0000      0.1134     -0.0009
        75         0.3676     -0.0002     -0.8513
        76        -0.0987     -0.0000      0.1894
        77         0.0000     -0.2148     -0.0000
        78        -0.0001      0.3878      0.0002
        79        -0.2252      0.0001     -0.0562
        80        -0.0000     -0.1358      0.0004
        81        -0.1373      0.0000      0.6830
        82         0.0001      0.4008      0.0001
        83        -0.2295      0.0002      0.0242
        84        -0.0000     -0.1597      0.0001
        85         0.0462     -0.0004      0.0259
        86         0.4188      0.0005     -0.0612
        87         0.0001     -1.1805      0.0001
        88         0.0000      0.6839     -0.0001
        89         0.0001     -0.4376     -0.0001
        90         0.0757     -0.0005      0.0803
        91        -0.0002     -0.1013     -0.0004
        92        -0.4082     -0.0003     -0.1744
        93        -0.0003      0.3594     -0.0002
        94         0.0002      0.3655     -0.0002
        95         0.4274     -0.0000     -0.2365
        96         0.0000      0.5171     -0.0001
        97        -0.0002      0.0411     -0.0001
        98         0.3911     -0.0001      0.1499
        99        -0.0002     -0.1933     -0.0001
       100        -0.1548     -0.0000     -0.0208
       101        -0.0001      0.4698     -0.0001
       102         0.4476      0.0001      0.3485
       103        -0.0001      0.0518     -0.0000
       104         0.3213      0.0002     -0.1458
       105         0.4902      0.0007      0.5034
       106         0.0009     -0.5829      0.0004
       107         0.4229      0.0004     -0.2393
       108        -0.0001      0.4169      0.0001
       109        -0.0975      0.0000      0.0242
       110         0.0000      0.3914     -0.0003
       111        -0.1017      0.0005      0.2497
       112        -0.2327      0.0004      0.6218
       113        -0.0003     -0.3343      0.0007
       114        -0.0001     -0.1775      0.0002
       115         0.0010     -0.2001      0.0002
       116         0.3007      0.0004      0.0982
       117         0.6686     -0.0001      0.3557
       118         0.0001     -0.0263      0.0002
       119         0.0001      0.0652      0.0001
       120         0.0000     -0.0132      0.0002
       121         0.6224     -0.0000      0.5767
       122        -0.0005     -0.5423      0.0003
       123         0.1839     -0.0005     -0.3128
       124        -0.1117     -0.0001     -0.1197
       125         0.0001     -0.3960      0.0001
       126         0.0826      0.0007     -0.3841
       127        -0.0003      0.3690      0.0006
       128        -0.3595     -0.0002     -0.4758
       129         0.0013     -0.7424      0.0011
       130         0.4295      0.0013      0.8105
       131         0.2992      0.0003     -0.5615
       132        -0.7972      0.0000      0.5464
       133         0.0029      0.0160     -0.0024
       134        -0.8770      0.0000      0.0406
       135         0.0008     -0.7578      0.0030
       136        -0.4182     -0.0025     -0.9443
       137        -0.0002     -0.2101      0.0000
       138        -0.0000      0.8561     -0.0003
       139         0.3011     -0.0002     -0.4477
       140         0.0000     -0.4417     -0.0004
       141        -0.0009     -0.0788      0.0000
       142        -0.8160      0.0002      0.4053
       143        -0.0002     -0.0259     -0.0005
       144        -0.0596     -0.0003      0.2626
       145        -0.4502     -0.0001     -0.0563
       146        -0.0126     -0.0145     -0.7715
       147         0.0003     -0.7628      0.0147
       148        -0.3654      0.0004     -0.6856
       149        -0.0002     -0.9180     -0.0005
       150        -0.2102      0.0010     -0.2868
 Ground to excited state transition velocity quadrupole moments (Au):
       state          XX          YY          ZZ          XY          XZ          YZ
         1        -0.0000      0.0000     -0.0000     -0.4669      0.0000     -0.0312
         2        -0.0001      0.0000      0.0000      0.0039     -0.0000     -0.0489
         3         0.5408     -0.0994     -0.0041     -0.0000      0.0237     -0.0000
         4        -0.0000      0.0000      0.0000      0.1373      0.0000     -0.0259
         5        -3.1125      0.1513     -0.0063     -0.0000     -0.1179     -0.0000
         6         0.0000      0.0000     -0.0000      0.7461     -0.0000     -0.0081
         7         0.3060      0.3692      0.0106     -0.0001     -0.0381     -0.0000
         8         0.1490     -0.0408     -0.0028      0.0000      0.1057      0.0000
         9         0.6535     -0.0841      0.0038     -0.0001      0.0445      0.0000
        10        -0.0001     -0.0000      0.0000     -0.8738     -0.0000      0.0286
        11         0.5856      0.0180      0.0030      0.0000     -0.0350     -0.0000
        12         0.0001      0.0001     -0.0000      0.2749     -0.0000      0.0471
        13         0.0000      0.0000      0.0000     -2.4615      0.0001     -0.0189
        14         6.6901      0.6276     -0.0555     -0.0000      0.0509     -0.0000
        15         0.0001     -0.0000      0.0000      2.8028     -0.0001      0.0365
        16        -4.4718      0.8059      0.0155      0.0002     -0.2266      0.0000
        17        -0.0003     -0.0005      0.0000      0.8830      0.0004      0.0720
        18        -0.1514     -0.1509      0.0196     -0.0037      0.1041     -0.0000
        19        -0.0582     -0.0770      0.0114      0.0012      0.0116     -0.0002
        20         0.0004     -0.0000      0.0000      0.9431      0.0001     -0.2440
        21         0.3845      0.2826     -0.0024      0.0001     -0.0352     -0.0000
        22        -0.0002     -0.0000     -0.0000      0.4933      0.0001     -0.1354
        23         0.0005     -0.0000      0.0000      0.3670      0.0000      0.1536
        24        -0.0010      0.0002      0.0000     -1.1375     -0.0000      0.0693
        25         8.1341     -1.3004     -0.0159     -0.0001      0.3178      0.0000
[...]
    25  H   -0.045431   0.008936  -0.004882  -0.000000   0.000000  -0.000000
    26  H    0.441608  -0.045979   0.009085  -0.000000   0.000000  -0.000000
    27  H   -0.044624   0.437631  -0.048704  -0.000000  -0.000000   0.000000
    28  H    0.005059  -0.028130   0.428255   0.000000  -0.000000   0.000000
    29  H    0.000000  -0.000000   0.000000   0.443881  -0.045431   0.008936
    30  H    0.000000  -0.000000   0.000000  -0.051496   0.441608  -0.045979
    31  H   -0.000000   0.000000   0.000000   0.008208  -0.044624   0.437631
    32  H   -0.000000   0.000000  -0.000000  -0.001173   0.005058  -0.028128
    33  H    0.000014  -0.000046   0.001432   0.000000  -0.000000   0.000000
    34  H   -0.000265   0.002368   0.002751  -0.000000   0.000000  -0.000000
    35  H    0.000024   0.000105   0.002162   0.000000  -0.000000   0.000000
    36  H   -0.000007   0.000034   0.000459  -0.000000   0.000000  -0.000000
    37  H    0.000001  -0.000002   0.000050  -0.000000   0.000000  -0.000000
    38  H   -0.000000   0.000000  -0.000001  -0.000041   0.000014  -0.000045
    39  H    0.000000  -0.000000   0.000000   0.000325  -0.000265   0.002367
    40  H   -0.000000   0.000000  -0.000000  -0.000057   0.000024   0.000105
    41  H    0.000000  -0.000000   0.000000   0.000027  -0.000007   0.000034
    42  H    0.000000  -0.000000   0.000000  -0.000003   0.000001  -0.000002
              19         20         21         22         23         24
     1  C   -0.000053  -0.061588   0.000196   0.001651   0.001340  -0.011850
     2  C    0.000969  -0.002847  -0.002020  -0.002843  -0.002015   0.384218
     3  C   -0.000508   0.001666   0.001336  -0.061594   0.000194  -0.011830
     4  N   -0.067056   0.000036   0.000022   0.229508  -0.036204  -0.006019
     5  S    0.000050   0.003923  -0.000364   0.000008  -0.000011   0.003545
     6  C    0.000001   0.009010   0.000999   0.000007   0.000001  -0.000358
     7  C   -0.000000  -0.048731   0.000719  -0.000032   0.000006   0.000372
     8  N   -0.000001   0.229507  -0.036203   0.000036   0.000022  -0.006018
     9  S    0.027944   0.000008  -0.000011   0.003922  -0.000364   0.003545
    10  C    0.047754   0.000007   0.000001   0.009007   0.000997  -0.000357
    11  C    0.281117  -0.000032   0.000006  -0.048731   0.000718   0.000371
    12  C    0.000000   0.000028   0.000012   0.000000  -0.000000   0.000002
    13  C   -0.000000  -0.000072   0.000014  -0.000000   0.000000   0.000003
    14  C    0.000000  -0.000095  -0.000015   0.000000  -0.000000  -0.000006
    15  C   -0.000000  -0.007585  -0.004810  -0.000001   0.000000   0.000119
    16  C   -0.085864   0.000000  -0.000000   0.000028   0.000012   0.000002
    17  C    0.007166  -0.000000   0.000000  -0.000072   0.000014   0.000003
    18  C    0.435475   0.000000  -0.000000  -0.000096  -0.000015  -0.000006
    19  C    5.232025  -0.000001   0.000000  -0.007586  -0.004810   0.000119
    20  C   -0.000001   5.116847   0.251843  -0.000467  -0.000011  -0.001676
    21  C    0.000000   0.251843   5.008853  -0.000011   0.000044  -0.003974
    22  C   -0.007586  -0.000467  -0.000011   5.116887   0.251831  -0.001676
    23  C   -0.004810  -0.000011   0.000044   0.251831   5.008869  -0.003975
    24  H    0.000119  -0.001676  -0.003974  -0.001676  -0.003975   0.434920
    25  H    0.000000   0.000015  -0.000001  -0.000000  -0.000000  -0.000001
    26  H    0.000000  -0.000001   0.000000  -0.000000  -0.000000   0.000000
    27  H    0.000000  -0.000009   0.000005   0.000000   0.000000  -0.000000
    28  H   -0.000000   0.000145  -0.001462  -0.000000   0.000000  -0.000003
    29  H   -0.004882  -0.000000  -0.000000   0.000015  -0.000001  -0.000001
    30  H    0.009085  -0.000000  -0.000000  -0.000001   0.000000   0.000000
    31  H   -0.048704   0.000000   0.000000  -0.000009   0.000005  -0.000000
    32  H    0.428251  -0.000000   0.000000   0.000146  -0.001463  -0.000003
    33  H   -0.000001   0.408958  -0.036545   0.000237   0.000080   0.000202
    34  H    0.000000   0.409067  -0.031712   0.000007  -0.000002   0.000512
    35  H   -0.000000  -0.037269   0.413132  -0.000000  -0.000001   0.000355
    36  H    0.000000  -0.038038   0.416258  -0.000064   0.000014  -0.000617
    37  H    0.000000  -0.046619   0.418910   0.000023   0.000001  -0.000055
    38  H    0.001432   0.000237   0.000080   0.408972  -0.036550   0.000199
    39  H    0.002753   0.000007  -0.000002   0.409059  -0.031710   0.000512
    40  H    0.002161  -0.000000  -0.000001  -0.037263   0.413128   0.000355
    41  H    0.000459  -0.000063   0.000014  -0.038050   0.416267  -0.000617
    42  H    0.000050   0.000023   0.000001  -0.046619   0.418908  -0.000055
              25         26         27         28         29         30
     1  C    0.000332   0.000016   0.000029  -0.000651   0.000008  -0.000000
     2  C   -0.000030   0.000000  -0.000002   0.000076  -0.000030   0.000000
     3  C    0.000008  -0.000000   0.000000   0.000005   0.000332   0.000016
     4  N    0.000000   0.000000   0.000000  -0.000000  -0.000016   0.000021
     5  S   -0.002808  -0.000182   0.000007  -0.000098  -0.000037  -0.000000
     6  C   -0.059608   0.010277  -0.002242   0.005792  -0.000000  -0.000000
     7  C    0.017312  -0.002603   0.010880  -0.039424   0.000000   0.000000
     8  N   -0.000016   0.000021  -0.000082  -0.002281   0.000000   0.000000
     9  S   -0.000037  -0.000000  -0.000000   0.000000  -0.002808  -0.000182
    10  C   -0.000000  -0.000000  -0.000000   0.000000  -0.059609   0.010277
    11  C    0.000000   0.000000   0.000000  -0.000000   0.017312  -0.002603
    12  C    0.443880  -0.051496   0.008208  -0.001173  -0.000000  -0.000000
    13  C   -0.045431   0.441608  -0.044624   0.005059   0.000000   0.000000
    14  C    0.008936  -0.045979   0.437631  -0.028130  -0.000000  -0.000000
    15  C   -0.004882   0.009085  -0.048704   0.428255   0.000000   0.000000
    16  C   -0.000000  -0.000000  -0.000000   0.000000   0.443881  -0.051496
    17  C    0.000000   0.000000  -0.000000  -0.000000  -0.045431   0.441608
    18  C   -0.000000  -0.000000   0.000000   0.000000   0.008936  -0.045979
    19  C    0.000000   0.000000   0.000000  -0.000000  -0.004882   0.009085
    20  C    0.000015  -0.000001  -0.000009   0.000145  -0.000000  -0.000000
    21  C   -0.000001   0.000000   0.000005  -0.001462  -0.000000  -0.000000
    22  C   -0.000000  -0.000000   0.000000  -0.000000   0.000015  -0.000001
    23  C   -0.000000  -0.000000   0.000000   0.000000  -0.000001   0.000000
    24  H   -0.000001   0.000000  -0.000000  -0.000003  -0.000001   0.000000
    25  H    0.464038  -0.004887  -0.000084   0.000007  -0.000000  -0.000000
    26  H   -0.004887   0.473774  -0.004841  -0.000076  -0.000000  -0.000000
    27  H   -0.000084  -0.004841   0.471697  -0.004447   0.000000   0.000000
    28  H    0.000007  -0.000076  -0.004447   0.447988   0.000000   0.000000
    29  H   -0.000000  -0.000000   0.000000   0.000000   0.464038  -0.004887
    30  H   -0.000000  -0.000000   0.000000   0.000000  -0.004887   0.473775
    31  H    0.000000   0.000000  -0.000000   0.000000  -0.000084  -0.004841
    32  H    0.000000   0.000000   0.000000  -0.000000   0.000007  -0.000076
    33  H   -0.000001  -0.000000  -0.000000   0.000449   0.000000  -0.000000
    34  H    0.000002  -0.000001  -0.000020  -0.001628  -0.000000   0.000000
    35  H   -0.000001   0.000000   0.000003   0.000324   0.000000  -0.000000
    36  H    0.000000  -0.000000  -0.000001   0.000015  -0.000000   0.000000
    37  H    0.000000  -0.000000   0.000000   0.000088   0.000000   0.000000
    38  H    0.000000  -0.000000   0.000000  -0.000000  -0.000001  -0.000000
    39  H   -0.000000   0.000000  -0.000000   0.000000   0.000002  -0.000001
    40  H    0.000000  -0.000000   0.000000  -0.000000  -0.000001   0.000000
    41  H   -0.000000   0.000000  -0.000000   0.000000   0.000000  -0.000000
    42  H    0.000000   0.000000   0.000000   0.000000   0.000000  -0.000000
              31         32         33         34         35         36
     1  C    0.000000   0.000005  -0.032965   0.009362  -0.001313  -0.000188
     2  C   -0.000002   0.000076   0.016144  -0.000366   0.000511   0.001915
     3  C    0.000029  -0.000651   0.003222   0.000090  -0.000080   0.000926
     4  N   -0.000082  -0.002281  -0.000101  -0.000001  -0.000001   0.000001
     5  S   -0.000000   0.000000  -0.000081  -0.000430  -0.000027  -0.000178
     6  C   -0.000000   0.000000  -0.000268  -0.001056   0.000520  -0.000260
     7  C    0.000000  -0.000000   0.009055  -0.022534   0.000624  -0.001871
     8  N    0.000000  -0.000000  -0.022383  -0.018555  -0.000911  -0.000058
     9  S    0.000007  -0.000098  -0.000028  -0.000000   0.000001  -0.000012
    10  C   -0.002242   0.005792   0.000011  -0.000000   0.000000   0.000001
    11  C    0.010880  -0.039422  -0.000020   0.000000  -0.000000   0.000006
    12  C   -0.000000   0.000000  -0.000041   0.000326  -0.000057   0.000027
    13  C   -0.000000  -0.000000   0.000014  -0.000265   0.000024  -0.000007
    14  C    0.000000   0.000000  -0.000046   0.002368   0.000105   0.000034
    15  C    0.000000  -0.000000   0.001432   0.002751   0.002162   0.000459
    16  C    0.008208  -0.001173   0.000000  -0.000000   0.000000  -0.000000
    17  C   -0.044624   0.005058  -0.000000   0.000000  -0.000000   0.000000
    18  C    0.437631  -0.028128   0.000000  -0.000000   0.000000  -0.000000
    19  C   -0.048704   0.428251  -0.000001   0.000000  -0.000000   0.000000
    20  C    0.000000  -0.000000   0.408958   0.409067  -0.037269  -0.038038
    21  C    0.000000   0.000000  -0.036545  -0.031712   0.413132   0.416258
    22  C   -0.000009   0.000146   0.000237   0.000007  -0.000000  -0.000064
    23  C    0.000005  -0.001463   0.000080  -0.000002  -0.000001   0.000014
    24  H   -0.000000  -0.000003   0.000202   0.000512   0.000355  -0.000617
    25  H    0.000000   0.000000  -0.000001   0.000002  -0.000001   0.000000
    26  H    0.000000   0.000000  -0.000000  -0.000001   0.000000  -0.000000
    27  H   -0.000000   0.000000  -0.000000  -0.000020   0.000003  -0.000001
    28  H    0.000000  -0.000000   0.000449  -0.001628   0.000324   0.000015
    29  H   -0.000084   0.000007   0.000000  -0.000000   0.000000  -0.000000
    30  H   -0.004841  -0.000076  -0.000000   0.000000  -0.000000   0.000000
    31  H    0.471696  -0.004447   0.000000  -0.000000   0.000000  -0.000000
    32  H   -0.004447   0.447982  -0.000000   0.000000  -0.000000   0.000000
    33  H    0.000000  -0.000000   0.503173  -0.021099   0.004416  -0.004015
    34  H   -0.000000   0.000000  -0.021099   0.501298  -0.004634   0.004139
    35  H    0.000000  -0.000000   0.004416  -0.004634   0.519845  -0.025387
    36  H   -0.000000   0.000000  -0.004015   0.004139  -0.025387   0.519160
    37  H    0.000000   0.000000  -0.001279  -0.001462  -0.021895  -0.022392
    38  H   -0.000000   0.000449  -0.000082  -0.000006   0.000010   0.000420
    39  H   -0.000020  -0.001627  -0.000006  -0.000000  -0.000000   0.000001
    40  H    0.000003   0.000324   0.000010  -0.000000   0.000000  -0.000000
    41  H   -0.000001   0.000015   0.000420   0.000001  -0.000000   0.000004
    42  H    0.000000   0.000088  -0.000063  -0.000000   0.000000   0.000004
              37         38         39         40         41         42
     1  C    0.000233   0.003216   0.000091  -0.000080   0.000928   0.000026
     2  C   -0.000101   0.016141  -0.000365   0.000510   0.001914  -0.000101
     3  C    0.000026  -0.032953   0.009360  -0.001311  -0.000189   0.000233
     4  N   -0.000000  -0.022390  -0.018556  -0.000911  -0.000057   0.006105
     5  S    0.000017  -0.000028  -0.000000   0.000001  -0.000012   0.000000
     6  C   -0.000018   0.000011  -0.000000   0.000000   0.000001  -0.000000
     7  C    0.000085  -0.000020   0.000000  -0.000000   0.000006   0.000000
     8  N    0.006106  -0.000101  -0.000001  -0.000001   0.000001  -0.000000
     9  S    0.000000  -0.000081  -0.000430  -0.000027  -0.000178   0.000017
    10  C   -0.000000  -0.000268  -0.001055   0.000520  -0.000260  -0.000017
    11  C    0.000000   0.009054  -0.022530   0.000623  -0.001870   0.000085
    12  C   -0.000003   0.000000  -0.000000   0.000000  -0.000000  -0.000000
    13  C    0.000001  -0.000000   0.000000  -0.000000   0.000000   0.000000
    14  C   -0.000002   0.000000  -0.000000   0.000000  -0.000000  -0.000000
    15  C    0.000050  -0.000001   0.000000  -0.000000   0.000000   0.000000
    16  C   -0.000000  -0.000041   0.000325  -0.000057   0.000027  -0.000003
    17  C    0.000000   0.000014  -0.000265   0.000024  -0.000007   0.000001
    18  C   -0.000000  -0.000045   0.002367   0.000105   0.000034  -0.000002
    19  C    0.000000   0.001432   0.002753   0.002161   0.000459   0.000050
    20  C   -0.046619   0.000237   0.000007  -0.000000  -0.000063   0.000023
    21  C    0.418910   0.000080  -0.000002  -0.000001   0.000014   0.000001
    22  C    0.000023   0.408972   0.409059  -0.037263  -0.038050  -0.046619
    23  C    0.000001  -0.036550  -0.031710   0.413128   0.416267   0.418908
    24  H   -0.000055   0.000199   0.000512   0.000355  -0.000617  -0.000055
    25  H    0.000000   0.000000  -0.000000   0.000000  -0.000000   0.000000
    26  H   -0.000000  -0.000000   0.000000  -0.000000   0.000000   0.000000
    27  H    0.000000   0.000000  -0.000000   0.000000  -0.000000   0.000000
    28  H    0.000088  -0.000000   0.000000  -0.000000   0.000000   0.000000
    29  H    0.000000  -0.000001   0.000002  -0.000001   0.000000   0.000000
    30  H    0.000000  -0.000000  -0.000001   0.000000  -0.000000  -0.000000
    31  H    0.000000  -0.000000  -0.000020   0.000003  -0.000001   0.000000
    32  H    0.000000   0.000449  -0.001627   0.000324   0.000015   0.000088
    33  H   -0.001279  -0.000082  -0.000006   0.000010   0.000420  -0.000063
    34  H   -0.001462  -0.000006  -0.000000  -0.000000   0.000001  -0.000000
    35  H   -0.021895   0.000010  -0.000000   0.000000  -0.000000   0.000000
    36  H   -0.022392   0.000420   0.000001  -0.000000   0.000004   0.000004
    37  H    0.517147  -0.000063  -0.000000   0.000000   0.000004  -0.000002
    38  H   -0.000063   0.503164  -0.021094   0.004415  -0.004014  -0.001280
    39  H   -0.000000  -0.021094   0.501292  -0.004635   0.004138  -0.001461
    40  H    0.000000   0.004415  -0.004635   0.519846  -0.025387  -0.021895
    41  H    0.000004  -0.004014   0.004138  -0.025387   0.519158  -0.022392
    42  H   -0.000002  -0.001280  -0.001461  -0.021895  -0.022392   0.517149
 Mulliken charges:
               1
     1  C    0.146449
     2  C   -0.313626
     3  C    0.146429
     4  N    0.002496
     5  S    0.065544
     6  C    0.007513
     7  C    0.159152
     8  N    0.002488
     9  S    0.065545
    10  C    0.007512
    11  C    0.159151
    12  C   -0.199432
    13  C   -0.168763
    14  C   -0.148926
    15  C   -0.257346
    16  C   -0.199427
    17  C   -0.168762
    18  C   -0.148929
    19  C   -0.257346
    20  C   -0.186221
    21  C   -0.395313
    22  C   -0.186232
    23  C   -0.395318
    24  H    0.219744
    25  H    0.183256
    26  H    0.175284
    27  H    0.176597
    28  H    0.191170
    29  H    0.183256
    30  H    0.175284
    31  H    0.176598
    32  H    0.191175
    33  H    0.171200
    34  H    0.173850
    35  H    0.149545
    36  H    0.149704
    37  H    0.151199
    38  H    0.171202
    39  H    0.173852
    40  H    0.149544
    41  H    0.149705
    42  H    0.151198
 Sum of Mulliken charges =   1.00000
 Mulliken charges with hydrogens summed into heavy atoms:
               1
     1  C    0.146449
     2  C   -0.093882
     3  C    0.146429
     4  N    0.002496
     5  S    0.065544
     6  C    0.007513
     7  C    0.159152
     8  N    0.002488
     9  S    0.065545
    10  C    0.007512
    11  C    0.159151
    12  C   -0.016177
    13  C    0.006521
    14  C    0.027671
    15  C   -0.066176
    16  C   -0.016171
    17  C    0.006522
    18  C    0.027669
    19  C   -0.066171
    20  C    0.158828
    21  C    0.055134
    22  C    0.158822
    23  C    0.055129
 Electronic spatial extent (au):  <R**2>=          10369.9076
 Charge=              1.0000 electrons
 Dipole moment (field-independent basis, Debye):
    X=              0.0001    Y=              5.1790    Z=              0.0001  Tot=              5.1790
 Quadrupole moment (field-independent basis, Debye-Ang):
   XX=            -70.5276   YY=           -110.2832   ZZ=           -154.7616
   XY=             -0.0003   XZ=              2.2460   YZ=             -0.0005
 Traceless Quadrupole moment (field-independent basis, Debye-Ang):
   XX=             41.3299   YY=              1.5743   ZZ=            -42.9042
   XY=             -0.0003   XZ=              2.2460   YZ=             -0.0005
 Octapole moment (field-independent basis, Debye-Ang**2):
  XXX=              0.0023  YYY=             20.6530  ZZZ=              0.0003  XYY=             -0.0004
  XXY=              1.4880  XXZ=              0.0024  XZZ=             -0.0001  YZZ=             13.9422
  YYZ=              0.0018  XYZ=              7.1387
 Hexadecapole moment (field-independent basis, Debye-Ang**3):
 XXXX=          -8690.4287 YYYY=          -2349.0535 ZZZZ=           -343.8129 XXXY=             -0.0068
 XXXZ=             78.9157 YYYX=             -0.0084 YYYZ=             -0.0035 ZZZX=             -9.1811
 ZZZY=              0.0014 XXYY=          -1853.3760 XXZZ=          -2140.6192 YYZZ=           -523.9153
 XXYZ=             -0.0138 YYXZ=              2.9348 ZZXY=              0.0002
 N-N= 2.127852619795D+03 E-N=-8.085702471918D+03  KE= 1.635156838501D+03
 Unable to Open any file for archive entry.
 1\1\GINC-CN02\SP\RCAM-B3LYP TD-FC\def2TZVP\C19H19N2S2(1+)\2100011873\0
 4-Nov-2023\0\\# td=(nstates=150) CAM-b3lyp/def2TZVP scrf(smd, solvent=
 ethanol)\\A-1\\1,1\C,0,-1.259214,0.216698,-0.039367\C,0,0.000003,0.828
 935,-0.000122\C,0,1.259209,0.216684,0.039249\N,0,2.433464,0.904848,0.1
 45998\S,0,-1.557561,-1.512152,0.053882\C,0,-3.297665,-1.258824,-0.0272
 83\C,0,-3.589904,0.108866,-0.118299\N,0,-2.433474,0.904863,-0.146106\S
 ,0,1.557549,-1.512171,-0.053923\C,0,3.297657,-1.25885,0.027304\C,0,3.5
 899,0.108842,0.118251\C,0,-4.301571,-2.224422,-0.003624\C,0,-5.624645,
 -1.792125,-0.066975\C,0,-5.925643,-0.425687,-0.149009\C,0,-4.920394,0.
 538274,-0.174272\C,0,4.301563,-2.22445,0.003718\C,0,5.624635,-1.792149
 ,0.067066\C,0,5.925635,-0.425707,0.149021\C,0,4.920384,0.538258,0.1742
 13\C,0,-2.510348,2.373529,-0.257226\C,0,-2.566433,3.073786,1.101522\C,
 0,2.510339,2.373497,0.257299\C,0,2.566508,3.073929,-1.101357\H,0,0.000
 014,1.90904,-0.000214\H,0,-4.060576,-3.280313,0.063971\H,0,-6.427238,-
 2.522132,-0.049094\H,0,-6.962056,-0.106514,-0.191342\H,0,-5.176748,1.5
 90213,-0.22813\H,0,4.060566,-3.280345,-0.063815\H,0,6.42723,-2.522156,
 0.049231\H,0,6.962048,-0.106532,0.191339\H,0,5.176733,1.590201,0.22801
 9\H,0,-1.657488,2.708489,-0.852128\H,0,-3.398115,2.597174,-0.852215\H,
 0,-3.441185,2.752064,1.674572\H,0,-1.673838,2.863356,1.699082\H,0,-2.6
 3423,4.156364,0.954302\H,0,1.657436,2.708379,0.852183\H,0,3.398074,2.5
 97059,0.85237\H,0,3.441334,2.752344,-1.674368\H,0,1.673988,2.86351,-1.
 699033\H,0,2.634214,4.156493,-0.95399\\Version=ES64L-G16RevC.02\State=
 1-A\HF=-1641.1179355\RMSD=8.071e-09\PG=C01 [X(C19H19N2S2)]\\@
 The archive entry for this job was punched.


 POCKETA-POCKETA
 BARON VON RICHTOFEN
 SLAUGHTERED THE ALLIES WITH
 HARDLY A CARE.
 KILLED EIGHTY-ONE WITH HIS
 BLOOD-COLORED TRIPLANE, THEN
 UN-AEROBATICALLY
 PLUNGED FROM THE AIR.
   -- TONY HOFFMAN
 Job cpu time:       3 days  5 hours 40 minutes 53.3 seconds.
 Elapsed time:       0 days  2 hours 31 minutes 15.4 seconds.
 File lengths (MBytes):  RWF=  28896 Int=      0 D2E=      0 Chk=   2880 Scr=     32
 Normal termination of Gaussian 16 at Sat Nov  4 04:11:00 2023.
