 Entering Gaussian System, Link 0=g16
 Initial command:
 /nfs-share/home/2100011873/Gaussian16_AVX2/g16/l1.exe "/nfs-share/home/2100011873/GaussTmp/Gau-20522.inp" -scrdir="/nfs-share/home/2100011873/GaussTmp/"
 Entering Link 1 = /nfs-share/home/2100011873/Gaussian16_AVX2/g16/l1.exe PID=     20523.
  
 Copyright (c) 1988-2021, Gaussian, Inc.  All Rights Reserved.
  
 This is part of the Gaussian(R) 16 program.  It is based on
 the Gaussian(R) 09 system (copyright 2009, Gaussian, Inc.),
 the Gaussian(R) 03 system (copyright 2003, Gaussian, Inc.),
 the Gaussian(R) 98 system (copyright 1998, Gaussian, Inc.),
 the Gaussian(R) 94 system (copyright 1995, Gaussian, Inc.),
 the Gaussian 92(TM) system (copyright 1992, Gaussian, Inc.),
 the Gaussian 90(TM) system (copyright 1990, Gaussian, Inc.),
 the Gaussian 88(TM) system (copyright 1988, Gaussian, Inc.),
 the Gaussian 86(TM) system (copyright 1986, Carnegie Mellon
 University), and the Gaussian 82(TM) system (copyright 1983,
 Carnegie Mellon University). Gaussian is a federally registered
 trademark of Gaussian, Inc.
  
 This software contains proprietary and confidential information,
 including trade secrets, belonging to Gaussian, Inc.
  
 This software is provided under written license and may be
 used, copied, transmitted, or stored only in accord with that
 written license.
  
 The following legend is applicable only to US Government
 contracts under FAR:
  
                    RESTRICTED RIGHTS LEGEND
  
 Use, reproduction and disclosure by the US Government is
 subject to restrictions as set forth in subparagraphs (a)
 and (c) of the Commercial Computer Software - Restricted
 Rights clause in FAR 52.227-19.
  
 Gaussian, Inc.
 340 Quinnipiac St., Bldg. 40, Wallingford CT 06492
  
  
 ---------------------------------------------------------------
 Warning -- This program may not be used in any manner that
 competes with the business of Gaussian, Inc. or will provide
 assistance to any competitor of Gaussian, Inc.  The licensee
 of this program is prohibited from giving any competitor of
 Gaussian, Inc. access to this program.  By using this program,
 the user acknowledges that Gaussian, Inc. is engaged in the
 business of creating and licensing software in the field of
 computational chemistry and represents and warrants to the
 licensee that it is not a competitor of Gaussian, Inc. and that
 it will not use this program in any manner prohibited above.
 ---------------------------------------------------------------
  

 Cite this work as:
 Gaussian 16, Revision C.02,
 M. J. Frisch, G. W. Trucks, H. B. Schlegel, G. E. Scuseria, 
 M. A. Robb, J. R. Cheeseman, G. Scalmani, V. Barone, 
 G. A. Petersson, H. Nakatsuji, X. Li, M. Caricato, A. V. Marenich, 
 J. Bloino, B. G. Janesko, R. Gomperts, B. Mennucci, H. P. Hratchian, 
 J. V. Ortiz, A. F. Izmaylov, J. L. Sonnenberg, D. Williams-Young, 
 F. Ding, F. Lipparini, F. Egidi, J. Goings, B. Peng, A. Petrone, 
 T. Henderson, D. Ranasinghe, V. G. Zakrzewski, J. Gao, N. Rega, 
 G. Zheng, W. Liang, M. Hada, M. Ehara, K. Toyota, R. Fukuda, 
 J. Hasegawa, M. Ishida, T. Nakajima, Y. Honda, O. Kitao, H. Nakai, 
 T. Vreven, K. Throssell, J. A. Montgomery, Jr., J. E. Peralta, 
 F. Ogliaro, M. J. Bearpark, J. J. Heyd, E. N. Brothers, K. N. Kudin, 
 V. N. Staroverov, T. A. Keith, R. Kobayashi, J. Normand, 
 K. Raghavachari, A. P. Rendell, J. C. Burant, S. S. Iyengar, 
 J. Tomasi, M. Cossi, J. M. Millam, M. Klene, C. Adamo, R. Cammi, 
 J. W. Ochterski, R. L. Martin, K. Morokuma, O. Farkas, 
 J. B. Foresman, and D. J. Fox, Gaussian, Inc., Wallingford CT, 2019.
 
 ******************************************
 Gaussian 16:  ES64L-G16RevC.02  7-Dec-2021
                 4-Nov-2023 
 ******************************************
 %nprocshared=32
 Will use up to   32 processors via shared memory.
 %mem=128GB
 ----------------------------------------------------------------
 # td=(nstates=150) CAM-b3lyp/def2TZVP scrf(smd, solvent=ethanol)
 ----------------------------------------------------------------
 1/38=1,172=1/1;
 2/12=2,17=6,18=5,40=1/2;
 3/5=44,7=101,11=9,25=1,30=1,70=32201,72=4,74=-40/1,2,3,8;
 4//1;
 5/5=2,38=5,53=4/2;
 8/6=1,10=1,108=150/1;
 9/41=150,42=1,70=2/14;
 6/7=2,8=2,9=2,10=2/1;
 99/5=1,9=1/99;
 ---
 A-4
 ---
 Symbolic Z-matrix:
 Charge =  1 Multiplicity = 1
 C                    -3.66371  -1.05195  -0.11156 
 C                    -2.38964  -0.47998  -0.08346 
 C                    -1.19497  -1.195    -0.06404 
 C                     0.05835  -0.57832  -0.03561 
 C                    -4.85534  -0.32376  -0.12489 
 S                    -4.92666   1.43671  -0.06062 
 C                    -6.68823   1.40203  -0.08329 
 C                    -7.15496   0.07936  -0.13945 
 N                    -6.11186  -0.85727  -0.18359 
 C                    -7.56515   2.4827   -0.04892 
 C                    -8.93496   2.22022  -0.06579 
 C                    -9.40707   0.90276  -0.11322 
 C                    -8.52936  -0.17953  -0.14882 
 C                    -6.36628  -2.30687  -0.24831 
 C                    -6.46714  -2.95588   1.13326 
 C                     1.28216  -1.24609  -0.01605 
 C                     2.51113  -0.58289   0.01194 
 C                     3.74122  -1.24435  -0.00844 
 C                     5.05244  -0.74902   0.00881 
 S                     6.36259  -1.86699  -0.36529 
 C                     7.56298  -0.60081  -0.16552 
 C                     6.94102   0.61236   0.16985 
 N                     5.54483   0.4953    0.28326 
 C                     8.94627  -0.69554  -0.30211 
 C                     9.70836   0.45414  -0.1007 
 C                     9.09298   1.66866   0.22877 
 C                     7.70945   1.76455   0.3665 
 C                     4.73281   1.62303   0.77014 
 C                     4.28228   2.56989  -0.34424 
 H                    -3.73183  -2.13483  -0.11343 
 H                    -2.31025   0.60799  -0.07629 
 H                    -1.23762  -2.28343  -0.07261 
 H                     0.07916   0.51298  -0.02766 
 H                    -7.19294   3.50135  -0.00844 
 H                    -9.63821   3.04629  -0.03843 
 H                    -10.47604   0.71486  -0.1197 
 H                    -8.91454  -1.19267  -0.17489 
 H                    -7.28921  -2.44204  -0.81662 
 H                    -5.57073  -2.7575   -0.84565 
 H                    -6.66636  -4.02676   1.02338 
 H                    -5.53664  -2.83556   1.69652 
 H                    -7.28005  -2.51465   1.718 
 H                     1.27987  -2.33528  -0.02423 
 H                     2.47239   0.50228   0.01364 
 H                     3.69108  -2.32677  -0.1054 
 H                     9.41663  -1.63929  -0.55871 
 H                     10.78759   0.40544  -0.2035 
 H                     9.70031   2.55586   0.37729 
 H                     7.25129   2.71614   0.61119 
 H                     3.88711   1.20264   1.31689 
 H                     5.34278   2.15493   1.50515 
 H                     3.66872   2.05491  -1.08995 
 H                     3.6925    3.38719   0.08394 
 H                     5.14149   3.00595  -0.86259 
 
 Stoichiometry    C25H25N2S2(1+)
 Framework group  C1[X(C25H25N2S2)]
 Deg. of freedom   156
 Full point group                 C1      NOp   1
 Largest Abelian subgroup         C1      NOp   1
 Largest concise Abelian subgroup C1      NOp   1
                         Standard orientation:                         
 ---------------------------------------------------------------------
 Center     Atomic      Atomic             Coordinates (Angstroms)
 Number     Number       Type             X           Y           Z
 ---------------------------------------------------------------------
      1          6           0       -3.663712   -1.051948   -0.111557
      2          6           0       -2.389638   -0.479979   -0.083458
      3          6           0       -1.194967   -1.195004   -0.064041
      4          6           0        0.058349   -0.578322   -0.035613
      5          6           0       -4.855344   -0.323764   -0.124892
      6         16           0       -4.926662    1.436711   -0.060618
      7          6           0       -6.688233    1.402029   -0.083292
      8          6           0       -7.154955    0.079357   -0.139452
      9          7           0       -6.111858   -0.857268   -0.183590
     10          6           0       -7.565153    2.482703   -0.048916
     11          6           0       -8.934956    2.220220   -0.065794
     12          6           0       -9.407072    0.902760   -0.113224
     13          6           0       -8.529361   -0.179533   -0.148820
     14          6           0       -6.366284   -2.306872   -0.248314
     15          6           0       -6.467137   -2.955883    1.133259
     16          6           0        1.282162   -1.246091   -0.016052
     17          6           0        2.511127   -0.582889    0.011938
     18          6           0        3.741215   -1.244345   -0.008435
     19          6           0        5.052439   -0.749020    0.008808
     20         16           0        6.362590   -1.866987   -0.365292
     21          6           0        7.562983   -0.600806   -0.165520
     22          6           0        6.941017    0.612357    0.169846
     23          7           0        5.544832    0.495298    0.283261
     24          6           0        8.946272   -0.695535   -0.302110
     25          6           0        9.708364    0.454142   -0.100703
     26          6           0        9.092982    1.668657    0.228770
     27          6           0        7.709445    1.764545    0.366500
     28          6           0        4.732809    1.623027    0.770139
     29          6           0        4.282282    2.569892   -0.344236
     30          1           0       -3.731831   -2.134826   -0.113428
     31          1           0       -2.310249    0.607987   -0.076294
     32          1           0       -1.237617   -2.283434   -0.072611
     33          1           0        0.079156    0.512977   -0.027655
     34          1           0       -7.192939    3.501353   -0.008437
     35          1           0       -9.638205    3.046285   -0.038434
     36          1           0      -10.476042    0.714855   -0.119701
     37          1           0       -8.914544   -1.192671   -0.174894
     38          1           0       -7.289207   -2.442036   -0.816617
     39          1           0       -5.570728   -2.757498   -0.845647
     40          1           0       -6.666359   -4.026758    1.023381
     41          1           0       -5.536643   -2.835556    1.696522
     42          1           0       -7.280055   -2.514652    1.717995
     43          1           0        1.279871   -2.335280   -0.024232
     44          1           0        2.472390    0.502280    0.013643
     45          1           0        3.691082   -2.326769   -0.105404
     46          1           0        9.416627   -1.639291   -0.558710
     47          1           0       10.787594    0.405440   -0.203502
     48          1           0        9.700309    2.555856    0.377290
     49          1           0        7.251286    2.716142    0.611187
     50          1           0        3.887111    1.202637    1.316886
     51          1           0        5.342782    2.154926    1.505154
     52          1           0        3.668719    2.054906   -1.089954
     53          1           0        3.692500    3.387191    0.083941
     54          1           0        5.141488    3.005946   -0.862588
 ---------------------------------------------------------------------
 Rotational constants (GHZ):           0.5052897           0.0306476           0.0290656
 Standard basis: def2TZVP (5D, 7F)
 There are  1206 symmetry adapted cartesian basis functions of A   symmetry.
 There are  1061 symmetry adapted basis functions of A   symmetry.
  1061 basis functions,  1715 primitive gaussians,  1206 cartesian basis functions
   110 alpha electrons      110 beta electrons
       nuclear repulsion energy      2585.8618479399 Hartrees.
 NAtoms=   54 NActive=   54 NUniq=   54 SFac= 1.00D+00 NAtFMM=   60 NAOKFM=F Big=F
 Integral buffers will be    131072 words long.
 Raffenetti 1 integral format.
 Two-electron integral symmetry is turned on.
 ------------------------------------------------------------------------------
 Polarizable Continuum Model (PCM)
 =================================
 Model                : PCM.
 Atomic radii         : SMD-Coulomb.
 Polarization charges : Total charges.
 Charge compensation  : None.
 Solution method      : On-the-fly selection.
 Cavity type          : VdW (van der Waals Surface) (Alpha=1.000).
 Cavity algorithm     : GePol (No added spheres)
                        Default sphere list used, NSphG=   54.
                        Lebedev-Laikov grids with approx.  5.0 points / Ang**2.
                        Smoothing algorithm: York/Karplus (Gamma=1.0000).
                        Polarization charges: spherical gaussians, with
                                              point-specific exponents (IZeta= 3).
                        Self-potential: point-specific (ISelfS= 7).
                        Self-field    : sphere-specific E.n sum rule (ISelfD= 2).
 Solvent              : Ethanol, Eps=  24.852000 Eps(inf)=   1.852593
 ------------------------------------------------------------------------------
 ------------------------------------------------------------------------------
 Atomic radii for non-electrostatic terms: SMD-CDS.
 ------------------------------------------------------------------------------
 Nuclear repulsion after PCM non-electrostatic terms =     2585.8550298034 Hartrees.
 One-electron integrals computed using PRISM.
   1 Symmetry operations used in ECPInt.
 ECPInt:  NShTT=   89676 NPrTT=  277881 LenC2=   56315 LenP2D=  119243.
 LDataN:  DoStor=T MaxTD1= 6 Len=  172
 NBasis=  1061 RedAO= T EigKep=  7.12D-06  NBF=  1061
 NBsUse=  1061 1.00D-06 EigRej= -1.00D+00 NBFU=  1061
 ExpMin= 9.52D-02 ExpMax= 6.07D+04 ExpMxC= 2.07D+03 IAcc=3 IRadAn=         5 AccDes= 0.00D+00
 Harris functional with IExCor=20419 and IRadAn=       5 diagonalized for initial guess.
 HarFok:  IExCor=20419 AccDes= 0.00D+00 IRadAn=         5 IDoV= 1 UseB2=F ITyADJ=14
 ICtDFT=  3500011 ScaDFX=  1.000000  1.000000  1.000000  1.000000
 FoFCou: FMM=F IPFlag=           0 FMFlag=      100000 FMFlg1=           0
         NFxFlg=           0 DoJE=T BraDBF=F KetDBF=T FulRan=T
         wScrn=  0.000000 ICntrl=       500 IOpCl=  0 I1Cent=   200000004 NGrid=           0
         NMat0=    1 NMatS0=      1 NMatT0=    0 NMatD0=    1 NMtDS0=    0 NMtDT0=    0
 Petite list used in FoFCou.
 Requested convergence on RMS density matrix=1.00D-08 within 128 cycles.
 Requested convergence on MAX density matrix=1.00D-06.
 Requested convergence on             energy=1.00D-06.
 No special actions if energy rises.
 Inv3:  Mode=1 IEnd=    53425200.
 Iteration    1 A*A^-1 deviation from unit magnitude is 3.55D-15 for    321.
 Iteration    1 A*A^-1 deviation from orthogonality  is 2.12D-15 for   1735    753.
 Iteration    1 A^-1*A deviation from unit magnitude is 3.44D-15 for   2277.
 Iteration    1 A^-1*A deviation from orthogonality  is 3.90D-15 for    636    388.
 Error on total polarization charges =  0.07501
 SCF Done:  E(RCAM-B3LYP) =  -1873.27579902     A.U. after   17 cycles
            NFock= 17  Conv=0.19D-08     -V/T= 2.0038
 SMD-CDS (non-electrostatic) energy       (kcal/mol) =      -4.28
 (included in total energy above)
 DoSCS=F DFT=T ScalE2(SS,OS)=  1.000000  1.000000
 ExpMin= 9.52D-02 ExpMax= 6.07D+04 ExpMxC= 2.07D+03 IAcc=3 IRadAn=         5 AccDes= 0.00D+00
 HarFok:  IExCor=  205 AccDes= 0.00D+00 IRadAn=         5 IDoV=-2 UseB2=F ITyADJ=14
 ICtDFT= 12500011 ScaDFX=  1.000000  1.000000  1.000000  1.000000
 GSVD:  LWork=       -1665 too small for GESVD, short by        7400 words or        7400 for optimal perf.
 Range of M.O.s used for correlation:    38  1061
 NBasis=  1061 NAE=   110 NBE=   110 NFC=    37 NFV=     0
 NROrb=   1024 NOA=    73 NOB=    73 NVA=   951 NVB=   951

 **** Warning!!: The largest alpha MO coefficient is  0.51222976D+02

 NEqPCM:  Using non-equilibrium solvation (IEInf=1, Eps=  24.8520, EpsInf=   1.8526)
 Inv3:  Mode=1 IEnd=    53425200.
 Iteration    1 A*A^-1 deviation from unit magnitude is 3.33D-15 for   3435.
 Iteration    1 A*A^-1 deviation from orthogonality  is 1.78D-15 for   2030   1791.
 Iteration    1 A^-1*A deviation from unit magnitude is 3.33D-15 for   3435.
 Iteration    1 A^-1*A deviation from orthogonality  is 2.25D-15 for   1749    718.
 Orbital symmetries:
       Occupied  (A) (A) (A) (A) (A) (A) (A) (A) (A) (A) (A) (A)
                 (A) (A) (A) (A) (A) (A) (A) (A) (A) (A) (A) (A)
                 (A) (A) (A) (A) (A) (A) (A) (A) (A) (A) (A) (A)
                 (A) (A) (A) (A) (A) (A) (A) (A) (A) (A) (A) (A)
                 (A) (A) (A) (A) (A) (A) (A) (A) (A) (A) (A) (A)
                 (A) (A) (A) (A) (A) (A) (A) (A) (A) (A) (A) (A)
                 (A) (A) (A) (A) (A) (A) (A) (A) (A) (A) (A) (A)
                 (A) (A) (A) (A) (A) (A) (A) (A) (A) (A) (A) (A)
                 (A) (A) (A) (A) (A) (A) (A) (A) (A) (A) (A) (A)
                 (A) (A)
       Virtual   (A) (A) (A) (A) (A) (A) (A) (A) (A) (A) (A) (A)
                 (A) (A) (A) (A) (A) (A) (A) (A) (A) (A) (A) (A)
                 (A) (A) (A) (A) (A) (A) (A) (A) (A) (A) (A) (A)
                 (A) (A) (A) (A) (A) (A) (A) (A) (A) (A) (A) (A)
                 (A) (A) (A) (A) (A) (A) (A) (A) (A) (A) (A) (A)
                 (A) (A) (A) (A) (A) (A) (A) (A) (A) (A) (A) (A)
                 (A) (A) (A) (A) (A) (A) (A) (A) (A) (A) (A) (A)
                 (A) (A) (A) (A) (A) (A) (A) (A) (A) (A) (A) (A)
                 (A) (A) (A) (A) (A) (A) (A) (A) (A) (A) (A) (A)
                 (A) (A) (A) (A) (A) (A) (A) (A) (A) (A) (A) (A)
                 (A) (A) (A) (A) (A) (A) (A) (A) (A) (A) (A) (A)
                 (A) (A) (A) (A) (A) (A) (A) (A) (A) (A) (A) (A)
                 (A) (A) (A) (A) (A) (A) (A) (A) (A) (A) (A) (A)
                 (A) (A) (A) (A) (A) (A) (A) (A) (A) (A) (A) (A)
                 (A) (A) (A) (A) (A) (A) (A) (A) (A) (A) (A) (A)
                 (A) (A) (A) (A) (A) (A) (A) (A) (A) (A) (A) (A)
                 (A) (A) (A) (A) (A) (A) (A) (A) (A) (A) (A) (A)
                 (A) (A) (A) (A) (A) (A) (A) (A) (A) (A) (A) (A)
                 (A) (A) (A) (A) (A) (A) (A) (A) (A) (A) (A) (A)
                 (A) (A) (A) (A) (A) (A) (A) (A) (A) (A) (A) (A)
                 (A) (A) (A) (A) (A) (A) (A) (A) (A) (A) (A) (A)
                 (A) (A) (A) (A) (A) (A) (A) (A) (A) (A) (A) (A)
                 (A) (A) (A) (A) (A) (A) (A) (A) (A) (A) (A) (A)
                 (A) (A) (A) (A) (A) (A) (A) (A) (A) (A) (A) (A)
                 (A) (A) (A) (A) (A) (A) (A) (A) (A) (A) (A) (A)
                 (A) (A) (A) (A) (A) (A) (A) (A) (A) (A) (A) (A)
                 (A) (A) (A) (A) (A) (A) (A) (A) (A) (A) (A) (A)
                 (A) (A) (A) (A) (A) (A) (A) (A) (A) (A) (A) (A)
                 (A) (A) (A) (A) (A) (A) (A) (A) (A) (A) (A) (A)
                 (A) (A) (A) (A) (A) (A) (A) (A) (A) (A) (A) (A)
                 (A) (A) (A) (A) (A) (A) (A) (A) (A) (A) (A) (A)
                 (A) (A) (A) (A) (A) (A) (A) (A) (A) (A) (A) (A)
                 (A) (A) (A) (A) (A) (A) (A) (A) (A) (A) (A) (A)
                 (A) (A) (A) (A) (A) (A) (A) (A) (A) (A) (A) (A)
                 (A) (A) (A) (A) (A) (A) (A) (A) (A) (A) (A) (A)
                 (A) (A) (A) (A) (A) (A) (A) (A) (A) (A) (A) (A)
                 (A) (A) (A) (A) (A) (A) (A) (A) (A) (A) (A) (A)
                 (A) (A) (A) (A) (A) (A) (A) (A) (A) (A) (A) (A)
                 (A) (A) (A) (A) (A) (A) (A) (A) (A) (A) (A) (A)
                 (A) (A) (A) (A) (A) (A) (A) (A) (A) (A) (A) (A)
                 (A) (A) (A) (A) (A) (A) (A) (A) (A) (A) (A) (A)
                 (A) (A) (A) (A) (A) (A) (A) (A) (A) (A) (A) (A)
                 (A) (A) (A) (A) (A) (A) (A) (A) (A) (A) (A) (A)
                 (A) (A) (A) (A) (A) (A) (A) (A) (A) (A) (A) (A)
                 (A) (A) (A) (A) (A) (A) (A) (A) (A) (A) (A) (A)
                 (A) (A) (A) (A) (A) (A) (A) (A) (A) (A) (A) (A)
                 (A) (A) (A) (A) (A) (A) (A) (A) (A) (A) (A) (A)
                 (A) (A) (A) (A) (A) (A) (A) (A) (A) (A) (A) (A)
                 (A) (A) (A) (A) (A) (A) (A) (A) (A) (A) (A) (A)
                 (A) (A) (A) (A) (A) (A) (A) (A) (A) (A) (A) (A)
                 (A) (A) (A) (A) (A) (A) (A) (A) (A) (A) (A) (A)
                 (A) (A) (A) (A) (A) (A) (A) (A) (A) (A) (A) (A)
                 (A) (A) (A) (A) (A) (A) (A) (A) (A) (A) (A) (A)
                 (A) (A) (A) (A) (A) (A) (A) (A) (A) (A) (A) (A)
                 (A) (A) (A) (A) (A) (A) (A) (A) (A) (A) (A) (A)
                 (A) (A) (A) (A) (A) (A) (A) (A) (A) (A) (A) (A)
                 (A) (A) (A) (A) (A) (A) (A) (A) (A) (A) (A) (A)
                 (A) (A) (A) (A) (A) (A) (A) (A) (A) (A) (A) (A)
                 (A) (A) (A) (A) (A) (A) (A) (A) (A) (A) (A) (A)
                 (A) (A) (A) (A) (A) (A) (A) (A) (A) (A) (A) (A)
                 (A) (A) (A) (A) (A) (A) (A) (A) (A) (A) (A) (A)
                 (A) (A) (A) (A) (A) (A) (A) (A) (A) (A) (A) (A)
                 (A) (A) (A) (A) (A) (A) (A) (A) (A) (A) (A) (A)
                 (A) (A) (A) (A) (A) (A) (A) (A) (A) (A) (A) (A)
                 (A) (A) (A) (A) (A) (A) (A) (A) (A) (A) (A) (A)
                 (A) (A) (A) (A) (A) (A) (A) (A) (A) (A) (A) (A)
                 (A) (A) (A) (A) (A) (A) (A) (A) (A) (A) (A) (A)
                 (A) (A) (A) (A) (A) (A) (A) (A) (A) (A) (A) (A)
                 (A) (A) (A) (A) (A) (A) (A) (A) (A) (A) (A) (A)
                 (A) (A) (A) (A) (A) (A) (A) (A) (A) (A) (A) (A)
                 (A) (A) (A) (A) (A) (A) (A) (A) (A) (A) (A) (A)
                 (A) (A) (A) (A) (A) (A) (A) (A) (A) (A) (A) (A)
                 (A) (A) (A) (A) (A) (A) (A) (A) (A) (A) (A) (A)
                 (A) (A) (A) (A) (A) (A) (A) (A) (A) (A) (A) (A)
                 (A) (A) (A) (A) (A) (A) (A) (A) (A) (A) (A) (A)
                 (A) (A) (A) (A) (A) (A) (A) (A) (A) (A) (A) (A)
                 (A) (A) (A) (A) (A) (A) (A) (A) (A) (A) (A) (A)
                 (A) (A) (A) (A) (A) (A) (A) (A) (A) (A) (A) (A)
                 (A) (A) (A) (A) (A) (A) (A) (A) (A) (A) (A) (A)
                 (A) (A) (A)
   600 initial guesses have been made.
 Convergence on wavefunction:    0.001000000000000
 Iteration     1 Dimension   600 NMult     0 NNew    600
 CISAX will form   160 AO SS matrices at one time.
 New state      6 was old state     10
 New state      7 was old state     12
 New state      8 was old state      7
 New state      9 was old state      6
 New state     10 was old state      8
 New state     11 was old state      9
 New state     12 was old state     11
 New state     17 was old state     51
 New state     18 was old state     58
 New state     19 was old state     17
 New state     20 was old state     21
 New state     21 was old state     23
 New state     23 was old state     19
 New state     24 was old state     28
 New state     25 was old state     61
 New state     26 was old state     29
 New state     28 was old state     31
 New state     29 was old state     35
 New state     30 was old state     32
 New state     31 was old state     20
 New state     32 was old state     33
 New state     33 was old state     24
 New state     34 was old state     65
 New state     35 was old state     18
 New state     36 was old state     39
 New state     37 was old state     38
 New state     38 was old state     25
 New state     39 was old state     52
 New state     40 was old state     54
 New state     41 was old state     71
 New state     42 was old state     47
 New state     43 was old state     50
 New state     44 was old state     26
 New state     45 was old state     44
 New state     46 was old state     40
 New state     47 was old state     48
 New state     48 was old state     30
 New state     49 was old state     46
 New state     50 was old state     69
 New state     51 was old state     53
 New state     52 was old state     56
 New state     53 was old state    100
 New state     54 was old state    154
 New state     55 was old state     59
 New state     56 was old state     41
 New state     57 was old state     80
 New state     58 was old state    105
 New state     59 was old state     81
 New state     60 was old state     63
 New state     61 was old state    108
 New state     62 was old state     55
 New state     63 was old state     68
 New state     64 was old state    155
 New state     65 was old state     64
 New state     66 was old state    168
 New state     67 was old state     72
 New state     68 was old state     70
 New state     69 was old state     73
 New state     70 was old state     82
 New state     71 was old state     79
 New state     72 was old state     62
 New state     73 was old state    199
 New state     75 was old state     93
 New state     76 was old state    202
 New state     77 was old state     34
 New state     78 was old state     88
 New state     79 was old state    110
 New state     80 was old state     37
 New state     81 was old state     36
 New state     82 was old state    109
 New state     83 was old state     84
 New state     84 was old state     86
 New state     85 was old state     78
 New state     86 was old state    112
 New state     87 was old state    135
 New state     88 was old state     75
 New state     89 was old state     94
 New state     90 was old state     87
 New state     91 was old state     99
 New state     92 was old state     42
 New state     93 was old state    150
 New state     94 was old state     90
 New state     95 was old state     96
 New state     96 was old state    239
 New state     97 was old state    261
 New state     98 was old state     67
 New state     99 was old state    119
 New state    100 was old state     89
 New state    101 was old state     91
 New state    102 was old state    171
 New state    103 was old state     49
 New state    104 was old state     85
 New state    105 was old state     97
 New state    106 was old state     95
 New state    107 was old state     77
 New state    108 was old state     76
 New state    109 was old state     98
 New state    110 was old state    114
 New state    111 was old state     57
 New state    112 was old state    102
 New state    113 was old state     60
 New state    114 was old state    101
 New state    115 was old state    181
 New state    116 was old state    139
 New state    117 was old state    185
 New state    118 was old state    104
 New state    119 was old state     66
 New state    120 was old state    170
 New state    121 was old state    158
 New state    122 was old state    175
 New state    123 was old state    115
 New state    124 was old state    162
 New state    125 was old state    164
 New state    126 was old state    186
 New state    127 was old state    136
 New state    128 was old state    177
 New state    129 was old state    144
 New state    130 was old state    122
 New state    131 was old state    106
 New state    132 was old state    303
 New state    133 was old state    195
 New state    134 was old state    123
 New state    135 was old state    126
 New state    136 was old state    118
 New state    137 was old state    179
 New state    138 was old state    125
 New state    139 was old state     92
 New state    140 was old state    339
 New state    141 was old state    248
 New state    142 was old state    161
 New state    143 was old state    334
 New state    144 was old state    131
 New state    145 was old state    370
 New state    146 was old state    103
 New state    147 was old state    138
 New state    148 was old state    205
 New state    149 was old state    193
 New state    150 was old state    174
 Iteration     2 Dimension   900 NMult   600 NNew    300
 New state     15 was old state     19
 New state     17 was old state     15
 New state     18 was old state     17
 New state     19 was old state     18
 New state     20 was old state     29
 New state     21 was old state     22
 New state     22 was old state     20
 New state     23 was old state     24
 New state     24 was old state     21
 New state     25 was old state     23
 New state     26 was old state     31
 New state     27 was old state     25
 New state     28 was old state     26
 New state     29 was old state     34
 New state     30 was old state     28
 New state     31 was old state     35
 New state     32 was old state     27
 New state     33 was old state     36
 New state     34 was old state     30
 New state     35 was old state     32
 New state     36 was old state     33
 New state     37 was old state     38
 New state     38 was old state     37
 New state     39 was old state     40
 New state     40 was old state     45
 New state     41 was old state     39
 New state     42 was old state     41
 New state     43 was old state     44
 New state     44 was old state     43
 New state     45 was old state     42
 New state     46 was old state     50
 New state     47 was old state     46
 New state     50 was old state     47
 New state     52 was old state     56
 New state     53 was old state     52
 New state     54 was old state     57
 New state     55 was old state     53
 New state     56 was old state     55
 New state     57 was old state     54
 New state     58 was old state     64
 New state     59 was old state     60
 New state     60 was old state     58
 New state     61 was old state     59
 New state     62 was old state     61
 New state     63 was old state     62
 New state     64 was old state     72
 New state     66 was old state     63
 New state     67 was old state     66
 New state     69 was old state     67
 New state     71 was old state     69
 New state     72 was old state     71
 New state     73 was old state     84
 New state     74 was old state     73
 New state     75 was old state     79
 New state     77 was old state     74
 New state     78 was old state     75
 New state     79 was old state     77
 New state     80 was old state     82
 New state     81 was old state     80
 New state     82 was old state     78
 New state     83 was old state     86
 New state     84 was old state     85
 New state     85 was old state     98
 New state     86 was old state     83
 New state     88 was old state     90
 New state     89 was old state    101
 New state     90 was old state     81
 New state     91 was old state     88
 New state     92 was old state     89
 New state     93 was old state    106
 New state     94 was old state     92
 New state     95 was old state     91
 New state     96 was old state     93
 New state     97 was old state     94
 New state     98 was old state     96
 New state     99 was old state     97
 New state    100 was old state     99
 New state    101 was old state    107
 New state    103 was old state    100
 New state    104 was old state    103
 New state    105 was old state    110
 New state    106 was old state    109
 New state    107 was old state    108
 New state    108 was old state    105
 New state    109 was old state    118
 New state    110 was old state    111
 New state    111 was old state    104
 New state    113 was old state    114
 New state    114 was old state    116
 New state    116 was old state    129
 New state    117 was old state    121
 New state    118 was old state    117
 New state    119 was old state    124
 New state    120 was old state    119
 New state    121 was old state    120
 New state    123 was old state    113
 New state    124 was old state    128
 New state    125 was old state    123
 New state    126 was old state    127
 New state    127 was old state    130
 New state    128 was old state    125
 New state    129 was old state    131
 New state    130 was old state    126
 New state    131 was old state    132
 New state    132 was old state    133
 New state    133 was old state    137
 New state    134 was old state    136
 New state    135 was old state    140
 New state    136 was old state    135
 New state    137 was old state    134
 New state    140 was old state    142
 New state    142 was old state    143
 New state    143 was old state    146
 New state    144 was old state    145
 New state    145 was old state    147
 New state    146 was old state    144
 New state    147 was old state    151
 New state    150 was old state    158
 Iteration     3 Dimension  1200 NMult   900 NNew    300
 New state    116 was old state    117
 New state    117 was old state    116
 New state    145 was old state    149
 New state    146 was old state    145
 New state    147 was old state    146
 New state    149 was old state    147
 Iteration     4 Dimension  1498 NMult  1200 NNew    298
 Iteration     5 Dimension  1634 NMult  1498 NNew    136
 Iteration     6 Dimension  1654 NMult  1634 NNew     20
 ***********************************************************************
 Excited states from <AA,BB:AA,BB> singles matrix:
 ***********************************************************************
 
 Ground to excited state transition densities written to RWF  633
 Ground to excited state transition electric dipole moments (Au):
       state          X           Y           Z        Dip. S.      Osc.
         1         7.5410     -0.1719      0.0474     56.8982      2.8208
         2        -0.2417     -0.8015     -0.0022      0.7009      0.0639
         3         0.0700     -0.7682      0.0023      0.5950      0.0598
         4        -0.1249     -0.2944     -0.0063      0.1023      0.0111
         5        -0.1594      0.2818      0.0753      0.1105      0.0121
         6         0.0766      0.1302      0.0604      0.0265      0.0030
         7         0.1147      0.0475      0.0168      0.0157      0.0018
         8         0.9470      0.2974      0.0072      0.9853      0.1136
         9        -0.1764     -0.5097     -0.0996      0.3008      0.0349
        10         0.0784      0.5937      0.1379      0.3776      0.0443
        11         0.0958     -0.5327     -0.0729      0.2982      0.0368
        12        -0.3335     -0.0727      0.0422      0.1183      0.0150
        13         0.0958     -0.0033     -0.0075      0.0092      0.0012
        14        -0.6412      0.1422     -0.0001      0.4314      0.0597
        15        -0.9566      0.1857      0.0209      0.9499      0.1332
        16        -0.2675     -0.6309      0.0352      0.4709      0.0674
        17         0.6272     -0.1480     -0.0445      0.4173      0.0602
        18        -0.0383     -0.0509      0.0244      0.0047      0.0007
        19         0.0726     -0.0337      0.0433      0.0083      0.0012
        20         0.3344     -0.7089     -0.0242      0.6150      0.0908
        21        -0.8219      0.3683      0.1170      0.8249      0.1222
        22         0.2917     -0.1256      0.0848      0.1081      0.0163
        23         0.1253     -0.2163     -0.0167      0.0628      0.0095
        24        -0.2344     -0.0080     -0.0177      0.0553      0.0085
        25        -0.3449      0.1003      0.0620      0.1329      0.0205
        26        -0.0021      0.2300     -0.0487      0.0553      0.0085
        27         0.0352      0.5190      0.0333      0.2717      0.0424
        28        -0.1598      0.1929      0.0201      0.0631      0.0099
        29         0.2064      0.2137     -0.0004      0.0882      0.0138
        30        -0.2735     -0.0770      0.0174      0.0810      0.0128
        31        -1.4891      0.2129      0.0259      2.2635      0.3600
        32         1.0105      0.8662      0.1316      1.7888      0.2850
        33         0.8107      0.9531      0.1769      1.5970      0.2551
        34        -0.4902     -0.0782     -0.0802      0.2529      0.0405
        35         0.1800      0.0003     -0.0863      0.0399      0.0064
        36         0.0061      0.1971      0.1503      0.0615      0.0099
        37        -0.4748     -0.1872      0.1335      0.2783      0.0453
        38         0.1363     -0.8328     -0.1234      0.7274      0.1210
        39        -0.0845      0.3685      0.0348      0.1442      0.0240
        40         0.3803     -0.5951     -0.0093      0.4989      0.0840
        41         0.9530     -0.4168     -0.0453      1.0840      0.1833
        42         0.2538     -0.0276     -0.0262      0.0659      0.0113
        43        -0.0245     -0.4336      0.0307      0.1895      0.0324
        44        -0.1897     -0.1965      0.0442      0.0766      0.0132
        45        -0.0431     -0.0760      0.0600      0.0112      0.0020
        46         0.0202      0.0951      0.0319      0.0105      0.0018
        47        -0.0754      0.0828     -0.0412      0.0142      0.0025
        48         0.0328     -0.0594     -0.0177      0.0049      0.0009
        49         0.0270     -0.0405     -0.0312      0.0033      0.0006
        50         0.0808      0.0013     -0.0498      0.0090      0.0016
        51         0.1182     -0.0201      0.0138      0.0146      0.0026
        52        -0.4369     -0.4512     -0.0800      0.4009      0.0727
        53         0.1200      0.2287      0.0134      0.0669      0.0121
        54        -0.6130      0.0368     -0.0369      0.3785      0.0689
        55        -0.2198      0.0273      0.1653      0.0764      0.0140
        56        -0.1740      0.1632     -0.0754      0.0626      0.0115
        57         0.1256     -0.0731     -0.0157      0.0214      0.0039
        58        -0.1025      0.2449      0.0449      0.0725      0.0133
        59         0.1455      0.1446      0.0099      0.0422      0.0078
        60        -0.0209     -0.0125      0.0653      0.0049      0.0009
        61         0.0774     -0.0158     -0.0775      0.0122      0.0023
        62        -0.0086     -0.1001      0.0326      0.0112      0.0021
        63        -0.0638     -0.0521      0.0435      0.0087      0.0016
        64         0.0623     -0.1012      0.0036      0.0141      0.0027
        65         0.1213     -0.0168      0.0461      0.0171      0.0032
        66         0.0079     -0.1158     -0.0365      0.0148      0.0028
        67         0.0860     -0.0689      0.1874      0.0473      0.0090
        68         0.0168      0.2827     -0.0272      0.0809      0.0154
        69         0.1507     -0.1684     -0.1486      0.0731      0.0140
        70        -0.1727     -0.0191     -0.1090      0.0421      0.0081
        71         0.0646      0.1766     -0.0126      0.0355      0.0068
        72         0.4995     -0.3765     -0.2171      0.4384      0.0847
        73        -0.6553      0.9461      0.0500      1.3271      0.2576
        74         0.0680      0.3862      0.0733      0.1591      0.0309
        75         0.1906      0.3873     -0.1269      0.2025      0.0395
        76        -0.0017     -0.2389     -0.1079      0.0687      0.0134
        77        -0.0359     -0.1621     -0.0097      0.0277      0.0054
        78        -0.0403      0.0130      0.0910      0.0101      0.0020
        79        -0.1118     -0.1022     -0.0108      0.0231      0.0045
        80        -0.1903     -0.0094     -0.1669      0.0642      0.0127
        81         0.2333      0.2537     -0.0781      0.1249      0.0247
        82         0.1564     -0.1046      0.0870      0.0430      0.0085
        83        -0.1064      0.1666      0.1288      0.0557      0.0110
        84         0.1701      0.3046      0.0251      0.1223      0.0243
        85         0.0960     -0.1060      0.1063      0.0317      0.0063
        86         0.0682      0.0647      0.1878      0.0441      0.0088
        87         0.1017      0.1015      0.1579      0.0456      0.0091
        88         0.1103     -0.1333      0.0362      0.0313      0.0062
        89        -0.2172      0.0041      0.0248      0.0478      0.0096
        90        -0.0167      0.1347      0.0304      0.0194      0.0039
        91         0.0163     -0.1587      0.1120      0.0380      0.0077
        92         0.0763     -0.0672     -0.0692      0.0151      0.0031
        93        -0.1306     -0.3039     -0.1072      0.1209      0.0244
        94        -0.2966     -0.2921      0.1398      0.1929      0.0392
        95        -0.1088     -0.1050     -0.0516      0.0255      0.0052
        96         0.0033      0.0230     -0.0989      0.0103      0.0021
        97         0.0153     -0.0700     -0.0294      0.0060      0.0012
        98         0.2051     -0.5968     -0.1097      0.4102      0.0838
        99        -0.1295      0.0568      0.0983      0.0296      0.0061
       100         0.0797     -0.0680      0.0207      0.0114      0.0023
       101        -0.1359      0.1066      0.0653      0.0341      0.0070
       102         0.0008      0.0148     -0.0425      0.0020      0.0004
       103        -0.0715     -0.1367      0.0642      0.0279      0.0058
       104        -0.0159      0.0780      0.0085      0.0064      0.0013
       105        -0.0342      0.0581     -0.0349      0.0058      0.0012
       106        -0.0558      0.0198     -0.0499      0.0060      0.0012
       107         0.1010      0.1208      0.0358      0.0261      0.0054
       108         0.1000     -0.1628      0.1044      0.0474      0.0099
       109         0.1761      0.2172     -0.0273      0.0789      0.0165
       110        -0.1093      0.3244      0.0434      0.1191      0.0250
       111        -0.0684     -0.0183     -0.0049      0.0050      0.0011
       112        -0.0623     -0.0791      0.0775      0.0161      0.0034
       113        -0.0384      0.1196     -0.0008      0.0158      0.0033
       114        -0.0361      0.1931     -0.0099      0.0387      0.0082
       115        -0.0880      0.1967      0.1103      0.0586      0.0124
       116         0.1139      0.0555      0.0134      0.0162      0.0034
       117         0.4016      0.3679     -0.0436      0.2985      0.0631
       118        -0.1347      0.0137      0.1152      0.0316      0.0067
       119         0.2209     -0.4131     -0.1022      0.2299      0.0487
       120        -0.1693     -0.2015     -0.0153      0.0695      0.0148
       121         0.0112     -0.1441     -0.0681      0.0255      0.0054
       122        -0.1133      0.0450      0.0711      0.0199      0.0042
       123         0.0030     -0.0334      0.0228      0.0016      0.0004
       124         0.1080      0.2416      0.0065      0.0701      0.0150
       125        -0.2224      0.0830     -0.0719      0.0615      0.0132
       126         0.1213     -0.1064      0.0160      0.0263      0.0056
       127        -0.0564      0.2538      0.0228      0.0681      0.0146
       128        -0.0447     -0.1396     -0.0261      0.0222      0.0048
       129        -0.0741     -0.1282      0.0482      0.0242      0.0052
       130        -0.0066      0.0661      0.0249      0.0050      0.0011
       131        -0.0352     -0.0272      0.0444      0.0039      0.0009
       132         0.0364     -0.0678      0.0040      0.0059      0.0013
       133        -0.0463      0.1530      0.0166      0.0258      0.0056
       134         0.0249     -0.0993     -0.0040      0.0105      0.0023
       135        -0.1222      0.1336     -0.0568      0.0360      0.0078
       136         0.1847     -0.0874     -0.0598      0.0453      0.0099
       137        -0.0882      0.1011      0.0710      0.0230      0.0050
       138         0.0788      0.1807     -0.0126      0.0390      0.0086
       139        -0.1281      0.0264      0.0200      0.0175      0.0038
       140        -0.1083      0.0826     -0.1068      0.0299      0.0066
       141         0.1640     -0.0129     -0.0281      0.0278      0.0061
       142        -0.1069      0.0079      0.0077      0.0116      0.0026
       143         0.0760      0.4074      0.0126      0.1719      0.0381
       144         0.6994     -0.3427     -0.0700      0.6114      0.1356
       145         0.1548      0.3942     -0.0937      0.1881      0.0417
       146         0.0212     -0.2984     -0.0569      0.0928      0.0206
       147        -0.5457      0.4776     -0.1415      0.5459      0.1217
       148        -0.2367      0.3339      0.0741      0.1730      0.0386
       149         0.1282     -0.0090     -0.0472      0.0187      0.0042
       150         0.1147      0.0055      0.0010      0.0132      0.0030
 Ground to excited state transition velocity dipole moments (Au):
       state          X           Y           Z        Dip. S.      Osc.
         1        -0.5584      0.0130     -0.0035      0.3120      2.7968
         2         0.0324      0.1091      0.0002      0.0129      0.0631
         3        -0.0107      0.1167     -0.0004      0.0137      0.0608
         4         0.0208      0.0479      0.0011      0.0027      0.0111
         5         0.0253     -0.0464     -0.0122      0.0029      0.0119
         6        -0.0128     -0.0223     -0.0108      0.0008      0.0031
         7        -0.0195     -0.0083     -0.0037      0.0005      0.0018
         8        -0.1627     -0.0538     -0.0011      0.0294      0.1132
         9         0.0305      0.0890      0.0174      0.0092      0.0351
        10        -0.0134     -0.1065     -0.0245      0.0121      0.0459
        11        -0.0205      0.1007      0.0137      0.0108      0.0388
        12         0.0626      0.0150     -0.0081      0.0042      0.0148
        13        -0.0198      0.0000      0.0015      0.0004      0.0013
        14         0.1327     -0.0303     -0.0003      0.0185      0.0595
        15         0.2003     -0.0393     -0.0039      0.0417      0.1320
        16         0.0578      0.1355     -0.0075      0.0218      0.0675
        17        -0.1359      0.0335      0.0104      0.0197      0.0607
        18         0.0084      0.0108     -0.0059      0.0002      0.0007
        19        -0.0163      0.0079     -0.0091      0.0004      0.0012
        20        -0.0740      0.1584      0.0055      0.0306      0.0921
        21         0.1847     -0.0837     -0.0266      0.0418      0.1255
        22        -0.0665      0.0298     -0.0198      0.0057      0.0168
        23        -0.0256      0.0487      0.0032      0.0030      0.0089
        24         0.0514      0.0007      0.0036      0.0027      0.0077
        25         0.0790     -0.0234     -0.0144      0.0070      0.0202
        26         0.0003     -0.0526      0.0113      0.0029      0.0083
        27        -0.0086     -0.1208     -0.0082      0.0147      0.0420
        28         0.0359     -0.0436     -0.0044      0.0032      0.0091
        29        -0.0474     -0.0521      0.0005      0.0050      0.0141
        30         0.0622      0.0165     -0.0033      0.0042      0.0117
        31         0.3534     -0.0499     -0.0062      0.1274      0.3560
        32        -0.2406     -0.2076     -0.0312      0.1020      0.2844
        33        -0.1938     -0.2273     -0.0428      0.0910      0.2533
        34         0.1180      0.0185      0.0189      0.0146      0.0406
        35        -0.0431      0.0000      0.0209      0.0023      0.0063
        36        -0.0025     -0.0478     -0.0335      0.0034      0.0094
        37         0.1157      0.0462     -0.0325      0.0166      0.0453
        38        -0.0360      0.2087      0.0308      0.0458      0.1224
        39         0.0227     -0.0911     -0.0089      0.0089      0.0237
        40        -0.0967      0.1492      0.0025      0.0316      0.0834
        41        -0.2412      0.1055      0.0117      0.0695      0.1826
        42        -0.0655      0.0075      0.0055      0.0044      0.0114
        43         0.0058      0.1124     -0.0083      0.0127      0.0331
        44         0.0491      0.0513     -0.0108      0.0052      0.0133
        45         0.0113      0.0196     -0.0164      0.0008      0.0020
        46        -0.0056     -0.0248     -0.0088      0.0007      0.0019
        47         0.0203     -0.0217      0.0098      0.0010      0.0025
        48        -0.0085      0.0146      0.0047      0.0003      0.0008
        49        -0.0066      0.0104      0.0084      0.0002      0.0006
        50        -0.0214     -0.0002      0.0139      0.0007      0.0016
        51        -0.0331      0.0045     -0.0037      0.0011      0.0028
        52         0.1186      0.1219      0.0218      0.0294      0.0720
        53        -0.0322     -0.0623     -0.0030      0.0049      0.0121
        54         0.1683     -0.0115      0.0097      0.0285      0.0697
        55         0.0593     -0.0074     -0.0421      0.0053      0.0130
        56         0.0488     -0.0444      0.0193      0.0047      0.0115
        57        -0.0336      0.0213      0.0039      0.0016      0.0039
        58         0.0279     -0.0660     -0.0130      0.0053      0.0128
        59        -0.0389     -0.0398     -0.0021      0.0031      0.0074
        60         0.0050      0.0040     -0.0190      0.0004      0.0010
        61        -0.0224      0.0046      0.0216      0.0010      0.0024
        62         0.0020      0.0290     -0.0103      0.0009      0.0022
        63         0.0166      0.0165     -0.0108      0.0007      0.0016
        64        -0.0166      0.0278     -0.0015      0.0010      0.0025
        65        -0.0346      0.0045     -0.0123      0.0014      0.0032
        66        -0.0040      0.0314      0.0097      0.0011      0.0026
        67        -0.0262      0.0195     -0.0498      0.0035      0.0083
        68        -0.0033     -0.0811      0.0075      0.0066      0.0155
        69        -0.0405      0.0484      0.0379      0.0054      0.0126
        70         0.0498      0.0060      0.0290      0.0034      0.0078
        71        -0.0192     -0.0490      0.0040      0.0028      0.0064
        72        -0.1436      0.1085      0.0614      0.0362      0.0832
        73         0.1910     -0.2716     -0.0148      0.1104      0.2529
        74        -0.0188     -0.1115     -0.0203      0.0132      0.0302
        75        -0.0563     -0.1132      0.0364      0.0173      0.0395
        76         0.0002      0.0695      0.0320      0.0059      0.0133
        77         0.0113      0.0486      0.0015      0.0025      0.0056
        78         0.0107     -0.0045     -0.0267      0.0008      0.0019
        79         0.0316      0.0297      0.0065      0.0019      0.0043
        80         0.0578      0.0042      0.0459      0.0055      0.0123
        81        -0.0696     -0.0744      0.0235      0.0109      0.0246
        82        -0.0441      0.0306     -0.0218      0.0034      0.0075
        83         0.0319     -0.0488     -0.0342      0.0046      0.0102
        84        -0.0520     -0.0908     -0.0059      0.0110      0.0246
        85        -0.0287      0.0309     -0.0290      0.0026      0.0059
        86        -0.0189     -0.0189     -0.0495      0.0032      0.0071
        87        -0.0297     -0.0298     -0.0437      0.0037      0.0082
        88        -0.0341      0.0402     -0.0081      0.0028      0.0063
        89         0.0669     -0.0017     -0.0076      0.0045      0.0101
        90         0.0047     -0.0403     -0.0089      0.0017      0.0038
        91        -0.0041      0.0485     -0.0296      0.0032      0.0072
        92        -0.0249      0.0216      0.0167      0.0014      0.0030
        93         0.0424      0.0912      0.0316      0.0111      0.0244
        94         0.0913      0.0872     -0.0396      0.0175      0.0383
        95         0.0334      0.0312      0.0160      0.0023      0.0051
        96        -0.0012     -0.0058      0.0253      0.0007      0.0015
        97        -0.0043      0.0220      0.0075      0.0006      0.0012
        98        -0.0622      0.1809      0.0334      0.0377      0.0821
        99         0.0402     -0.0173     -0.0292      0.0028      0.0060
       100        -0.0248      0.0207     -0.0059      0.0011      0.0023
       101         0.0415     -0.0328     -0.0197      0.0032      0.0069
       102         0.0005     -0.0039      0.0125      0.0002      0.0004
       103         0.0223      0.0412     -0.0208      0.0026      0.0057
       104         0.0056     -0.0234     -0.0007      0.0006      0.0012
       105         0.0108     -0.0182      0.0113      0.0006      0.0012
       106         0.0178     -0.0060      0.0143      0.0006      0.0012
       107        -0.0318     -0.0385     -0.0104      0.0026      0.0055
       108        -0.0317      0.0517     -0.0287      0.0045      0.0096
       109        -0.0559     -0.0672      0.0079      0.0077      0.0164
       110         0.0327     -0.1004     -0.0132      0.0113      0.0240
       111         0.0211      0.0059      0.0017      0.0005      0.0010
       112         0.0200      0.0243     -0.0241      0.0016      0.0033
       113         0.0107     -0.0363      0.0009      0.0014      0.0030
       114         0.0088     -0.0586      0.0022      0.0035      0.0074
       115         0.0274     -0.0619     -0.0341      0.0057      0.0121
       116        -0.0360     -0.0172     -0.0037      0.0016      0.0034
       117        -0.1279     -0.1139      0.0138      0.0295      0.0621
       118         0.0419     -0.0040     -0.0341      0.0029      0.0062
       119        -0.0688      0.1291      0.0327      0.0225      0.0471
       120         0.0539      0.0660      0.0044      0.0073      0.0152
       121        -0.0026      0.0452      0.0187      0.0024      0.0050
       122         0.0386     -0.0160     -0.0221      0.0022      0.0047
       123        -0.0005      0.0100     -0.0068      0.0001      0.0003
       124        -0.0348     -0.0755     -0.0026      0.0069      0.0144
       125         0.0686     -0.0256      0.0209      0.0058      0.0121
       126        -0.0373      0.0352     -0.0047      0.0026      0.0055
       127         0.0177     -0.0804     -0.0061      0.0068      0.0141
       128         0.0116      0.0445      0.0091      0.0022      0.0045
       129         0.0236      0.0408     -0.0157      0.0025      0.0051
       130         0.0013     -0.0219     -0.0066      0.0005      0.0011
       131         0.0112      0.0098     -0.0127      0.0004      0.0008
       132        -0.0130      0.0218      0.0009      0.0006      0.0013
       133         0.0148     -0.0500     -0.0059      0.0028      0.0056
       134        -0.0075      0.0333     -0.0007      0.0012      0.0024
       135         0.0406     -0.0430      0.0194      0.0039      0.0079
       136        -0.0607      0.0277      0.0172      0.0047      0.0097
       137         0.0299     -0.0339     -0.0183      0.0024      0.0048
       138        -0.0258     -0.0585      0.0043      0.0041      0.0083
       139         0.0405     -0.0089     -0.0047      0.0017      0.0035
       140         0.0367     -0.0281      0.0340      0.0033      0.0066
       141        -0.0558      0.0048      0.0093      0.0032      0.0065
       142         0.0355     -0.0019     -0.0022      0.0013      0.0026
       143        -0.0230     -0.1356     -0.0018      0.0189      0.0380
       144        -0.2359      0.1143      0.0232      0.0693      0.1388
       145        -0.0500     -0.1330      0.0301      0.0211      0.0423
       146        -0.0072      0.0991      0.0187      0.0102      0.0204
       147         0.1825     -0.1593      0.0420      0.0604      0.1205
       148         0.0802     -0.1108     -0.0212      0.0192      0.0381
       149        -0.0429      0.0024      0.0145      0.0021      0.0041
       150        -0.0389     -0.0006      0.0025      0.0015      0.0030
 Ground to excited state transition magnetic dipole moments (Au):
       state          X           Y           Z
         1         0.0416      0.0853     -1.5685
         2        -0.0416      0.0955     -0.3007
         3        -0.0133      0.0750     -0.3261
         4         0.0305     -0.0605     -0.0225
         5         0.0952      0.0324     -0.0395
         6         0.0175     -0.1799     -0.2878
         7         0.2132      0.1480      0.1545
         8        -0.0534     -0.0479      1.4746
         9        -0.0013     -0.3550      2.1389
        10        -0.0561      0.3950     -0.9785
        11         0.0426     -0.3251      0.1334
        12         0.0557      0.2258     -2.4453
        13         0.0082     -0.0216      0.1748
        14        -0.0093      0.0880      0.3173
        15        -0.0468     -0.0234      1.8930
        16         0.0410      0.2506     -1.3500
        17        -0.0267     -0.0447     -0.2377
        18        -0.0384      0.4668     -0.0826
        19         0.2891      0.4545     -0.2031
        20         0.0101      0.1969     -3.1357
        21        -0.1369      0.3803     -0.5656
        22        -0.0696     -0.1707     -0.5182
        23        -0.0409      0.0591     -0.8325
        24        -0.1000      0.2239      0.0638
        25         0.1135      0.0314     -0.5018
        26        -0.0072      0.2656     -0.1925
        27         0.0306      0.2054      0.2545
        28         0.0995     -0.2105      0.3505
        29        -0.0840      0.4665     -0.2416
        30         0.0600     -0.0969      0.9350
        31        -0.0202      0.3225     -2.6838
        32        -0.1347      0.7976     -3.2453
        33         0.0409      0.3387     -3.2726
        34        -0.1103     -0.0165     -0.3230
        35         0.1896     -0.1252      0.6147
        36         0.1912     -0.0586     -0.4216
        37         0.0752      0.5896     -3.7070
        38         0.1634     -0.3612     -0.7709
        39         0.1580      0.1119      0.9905
        40         0.0692     -0.2761      0.5474
        41        -0.0189     -0.1229     -1.5966
        42         0.1357     -0.0311      0.1707
        43         0.1497      0.1222     -2.1840
        44         0.0175      0.2325     -1.2702
        45         0.5707      0.2084      0.2531
        46         0.1469      0.0774     -0.0199
        47         0.3038     -0.0017     -0.1949
        48        -0.1308     -0.0426      0.1538
        49         0.1212     -0.2427     -0.2726
        50         0.3456     -0.1156      0.0780
        51        -0.0797      0.3047     -0.2290
        52         0.0760     -0.2989      1.8912
        53         0.0219      0.0593     -0.7350
        54        -0.0062     -0.0270     -0.6007
        55        -0.1507     -0.1447     -0.0157
        56         0.0509      0.5713     -0.8193
        57         0.3820     -0.0338     -0.1900
        58         0.0272     -0.1529     -1.1194
        59         0.0283      0.0340     -0.3992
        60         0.0589     -0.0030      0.2054
        61         0.1254     -0.3921     -0.5483
        62         0.0787      0.1123      0.0026
        63         0.3239      0.0275     -0.5724
        64         0.2681      0.3810     -0.1981
        65        -0.0667      0.3633      0.1548
        66        -0.0398      0.2108      0.0993
        67        -0.3292     -0.3445      0.0964
        68         0.1095      0.1831      2.3139
        69        -0.7693     -0.5206      0.3734
        70         0.1005      0.1044     -0.9543
        71        -0.0917     -0.8534      0.9821
        72         0.2660     -0.5377      2.0971
        73         0.0680      0.5071      0.0037
        74         0.0199     -0.4303      2.1869
        75        -0.0646      0.0475      2.8849
        76         0.2068     -0.8061     -1.0932
        77         0.2676     -0.3604      0.2182
        78        -0.1476     -0.0438     -0.6828
        79        -0.0387     -0.3346     -0.5354
        80         0.0881     -0.6578      1.5806
        81        -0.5741     -0.3489      1.0371
        82         0.0303     -0.1935      0.9058
        83        -0.1105     -0.2440      0.6343
        84         0.6902     -0.5857     -0.1460
        85         0.0929     -0.2088     -0.0319
        86         0.2107      0.2902      0.8935
        87        -0.4302     -0.5323      0.4396
        88        -0.1247      0.0484     -0.0386
        89         0.0783     -0.2214     -0.2563
        90         0.0269      0.1113     -0.4470
        91         0.1168     -0.1988     -0.0542
        92         0.0486     -0.2067      0.0774
        93        -0.0830     -0.1606     -0.3420
        94         0.1669     -0.0478     -1.9969
        95        -0.0826     -0.4969      0.0968
        96        -0.3087     -0.3123      0.2845
        97        -0.0313      0.0846     -0.6400
        98         0.1718     -0.6352      1.9164
        99        -0.1979      0.0528     -0.9406
       100         0.2469      0.3282      0.4822
       101         0.0069      0.4023     -0.0802
       102         0.0358     -0.3801     -0.1606
       103         0.1470     -0.5117     -0.7378
       104        -0.0587      0.1610     -0.1239
       105         0.1061      0.0827     -0.1282
       106        -0.0237      0.3195      0.0651
       107        -0.1220      0.4919     -0.9231
       108        -0.2066      0.3920      1.3436
       109        -0.0110      0.0065      0.5791
       110         0.0905     -0.1238     -0.8637
       111         0.0339     -0.0733     -0.3952
       112        -0.0119     -0.4849     -0.4046
       113         0.0699     -0.2162      0.5403
       114         0.0142     -0.1011     -0.7432
       115         0.2780      0.8751     -0.8715
       116        -0.0696     -0.3201      0.4292
       117        -0.1582      0.3193      2.0229
       118        -0.3119      0.0238      0.1924
       119         0.2486     -0.3932      0.8159
       120         0.2058     -0.6217      2.2841
       121        -0.2341      0.4381      1.7199
       122         0.4313     -0.4240      0.1253
       123        -0.1335      0.0769      0.0397
       124         0.4307      0.0741     -0.9178
       125         0.1631      0.1267     -0.6222
       126         0.0085     -0.5002      0.1738
       127         0.0125     -0.0480     -0.1284
       128         0.0228      0.1798     -0.5185
       129         0.1941     -0.2301     -0.3804
       130        -0.2286     -0.0638      0.1811
       131        -0.0954     -0.2123      0.1080
       132         0.0836     -0.0984      0.5602
       133        -0.2338     -0.0699     -0.7558
       134         0.4452      0.3192      0.1318
       135        -0.4301     -0.0736      0.1856
       136         0.0138     -0.0762     -0.1267
       137        -0.0929     -0.1613     -0.0548
       138         0.2595      0.3463     -0.0420
       139         0.4257      0.4336      0.7117
       140         0.5895      0.3767      0.3572
       141        -0.4512     -0.4544     -0.1084
       142         0.3774      0.8868      0.4081
       143         0.0415      0.2230      0.4597
       144         0.0842      0.3915     -1.5740
       145        -0.0123      0.3815      0.5430
       146         0.5969     -0.1086     -0.1369
       147         0.1331      0.2642      1.0641
       148        -0.0969     -0.6733      0.3888
       149        -0.1257     -1.1535     -0.4695
       150        -0.0322      0.0251      0.2845
 Ground to excited state transition velocity quadrupole moments (Au):
       state          XX          YY          ZZ          XY          XZ          YZ
         1        -0.2171      0.0426     -0.0015     -0.1375      0.0343     -0.0447
         2         8.8818      0.4542      0.0442     -0.4618      0.0160      0.0235
         3         4.5612      0.0225      0.0240     -0.2766      0.0052      0.0066
         4        -0.8837     -0.1172     -0.0014     -0.4707      0.0410      0.0015
         5         0.4007      0.0228      0.0030     -0.5520     -0.1228      0.0210
         6        -0.4393     -0.0197      0.0057     -0.1394     -0.1583      0.0020
         7         0.4092     -0.0124     -0.0048      0.0406      0.0897     -0.0428
         8         4.3119     -0.1128     -0.0059      0.5933      0.0722      0.0066
         9         0.8571     -0.1160      0.0005      2.2816      0.2784      0.0049
        10         0.1721     -0.0882      0.0047     -0.4646     -0.2917      0.0185
        11        -0.9537      0.1488      0.0010     -0.2433      0.1814      0.0034
        12        -1.8233     -0.0593     -0.0249     -1.5082     -0.1361     -0.0082
        13        -2.9918     -0.1464      0.0006      0.2436      0.0120     -0.0053
        14         0.6722     -0.0812     -0.0035      0.2701     -0.0497     -0.0451
        15         0.2406     -0.2931      0.0116      2.1781     -0.0518      0.0509
        16         7.2014     -0.0297     -0.0417     -1.3238     -0.1164     -0.0182
        17        -2.2235      0.1478      0.0112     -0.7268      0.0464      0.0440
        18         0.5586      0.0106     -0.0063     -0.0248     -0.0716      0.0071
        19        -0.0511      0.0878     -0.0022     -0.3259      0.0068      0.0077
        20         3.7789      0.6126     -0.0282     -2.9802     -0.1831     -0.0364
        21         4.0223     -0.5055     -0.0242      0.1073     -0.3565     -0.0586
        22        -0.6551      0.3306     -0.0124     -0.7562      0.0928      0.0519
        23         1.2173      0.1105     -0.0306     -0.7219     -0.0257     -0.0516
        24         0.3064     -0.5344     -0.0159      0.4950     -0.1565     -0.1124
        25        -0.1081     -0.2553     -0.0003     -0.2811     -0.0112      0.0398
        26         0.5939      0.1560     -0.0009     -0.3226     -0.2034     -0.0609
        27         2.0814     -0.0382      0.0120      0.7401     -0.0931     -0.0404
        28         0.2399     -0.0907      0.0344      0.5626      0.1490      0.0799
        29         1.3895     -0.1003     -0.0364      0.0976     -0.3650     -0.1071
        30         0.4337     -0.0176     -0.0552      1.0675      0.0514     -0.0059
        31       -10.9959      0.4881      0.0100     -0.6055     -0.4443     -0.0301
        32        -2.0432     -0.2397     -0.0137     -3.6767     -0.7399     -0.0626
        33        -6.0062     -0.0126      0.0392     -3.3295     -0.3690      0.0717
        34        -2.3643      0.0832      0.0130      0.2091     -0.1027     -0.0598
        35        -0.7888     -0.0042      0.0168      0.2642      0.0718      0.0697
        36        -0.5163     -0.0110     -0.0292     -0.3518      0.0933      0.0937
        37         7.1426     -0.0289     -0.0283     -3.3662     -0.5103     -0.0451
        38        -2.5142      0.8444      0.0219     -0.7496      0.3191      0.1037
        39         3.1386     -0.6377      0.0353      0.7539     -0.0487      0.0825
        40         4.7055      0.1323     -0.0116     -0.5414      0.2889      0.0332
        41        -3.3427      0.2508     -0.0061     -2.0969      0.1315      0.0469
        42        -1.5701     -0.0632      0.0738      0.2447      0.0800      0.0916
        43         1.4618     -0.0475     -0.0287     -2.5061     -0.0611     -0.0249
        44         1.2770     -0.0230     -0.0037     -1.3762     -0.3261      0.0334
        45         0.4684     -0.1455      0.0519      0.1685     -0.1045      0.1307
        46        -0.8967      0.1313      0.0313      0.1023     -0.1236      0.0179
        47         0.3967     -0.0497      0.0686     -0.0389      0.0941      0.1051
        48        -1.2327      0.0861      0.0353      0.1728      0.1645     -0.0203
        49         0.1909     -0.1698      0.0040     -0.0291      0.1243      0.0187
        50        -0.2352      0.1020      0.0093      0.1673     -0.0653      0.0874
        51        -0.9284      0.0539     -0.0031     -0.0449     -0.2309      0.0616
        52         3.0545      0.2030     -0.0246      2.2712      0.3389      0.0142
        53        -0.1162     -0.2322     -0.0085     -0.8659     -0.1264     -0.0595
        54        -6.1384      0.4129      0.0231      0.2517     -0.0715      0.0067
        55        -0.3558      0.2032     -0.0287     -0.0120      0.0761     -0.1177
        56         0.8214      0.1265     -0.0150     -0.8795     -0.4175     -0.0831
        57         0.5834     -0.0052      0.0269     -0.0535     -0.0475      0.0666
        58         0.9422      0.0702      0.0162     -1.2825     -0.0830      0.0246
        59         0.5320      0.0747     -0.0128     -0.9663     -0.0735      0.0349
        60        -0.3093      0.0471     -0.0049      0.0222     -0.0919     -0.0577
        61        -0.1078     -0.1676     -0.1001     -0.4610      0.3943     -0.0379
        62        -0.0880      0.0306      0.0690      0.1158      0.1010      0.0481
        63        -0.0800     -0.0964      0.0774     -0.3294     -0.1786      0.2930
        64         0.3307     -0.3822      0.0123     -0.4817     -0.3460     -0.0242
        65        -0.9613     -0.0892     -0.0651     -0.0994     -0.2319     -0.1015
        66         0.0743      0.0854     -0.0504     -0.0343     -0.4084      0.0849
        67        -0.4008     -0.0030      0.0010      0.2144      0.3505     -0.1835
        68        -1.9650     -0.5462     -0.0157      2.0925     -0.1114     -0.0257
        69        -0.9862     -0.1287     -0.0207      0.0792      0.2625     -0.1849
        70         1.1937      0.2186      0.0157     -0.8824     -0.0327     -0.0797
        71        -1.1219     -0.0585      0.0454      0.9893      0.9671      0.1021
        72        -4.5313      0.1873      0.0290      1.8680      0.4864      0.1827
        73         4.9394     -0.7574      0.0309      0.4207     -0.5422      0.0513
        74        -0.5196     -0.3123      0.0324      2.4010      0.4274     -0.1027
        75        -2.7672     -0.1652     -0.0019      3.0166      0.0065     -0.0645
        76         0.1234      0.1804      0.0284     -1.0807      0.8725      0.0454
        77         0.7587      0.2265      0.1069      0.1817      0.3036      0.1501
        78        -0.0489     -0.0673     -0.0493     -0.6142     -0.0595     -0.1071
        79         0.1248      0.3478      0.0220     -0.3799      0.2550     -0.0657
        80         1.6674     -0.0250      0.0230      1.4927      0.6305      0.0895
        81        -0.8055     -0.1934      0.0151      1.1426      0.1846     -0.0600
        82         1.1156     -0.0269     -0.0365      0.7618      0.1771      0.0078
        83        -0.3796      0.0012      0.0078      0.8492      0.0941      0.0450
        84        -0.5866     -0.3200      0.0391     -0.0946      0.6433      0.2385
        85         3.2665      0.2858     -0.0123     -1.0510      0.1124      0.0162
        86        -1.2372     -0.0691     -0.0824      0.8160     -0.2017     -0.0180
        87         1.1584      0.0972      0.0470      0.4162      0.6436     -0.0012
        88         0.1414      0.1821      0.0162     -0.0147      0.0278     -0.0052
        89        -1.7855     -0.1715     -0.0177      0.1880      0.1793      0.0345
        90         0.0755     -0.0905     -0.0109     -0.3867     -0.0912     -0.0076
        91         0.4409     -0.1438      0.0199     -0.2011      0.1164      0.0364
        92         0.0204     -0.0130      0.0222      0.0519      0.1690      0.0805
        93        -0.5305     -0.0714     -0.0009     -0.2195      0.0217     -0.0334
        94        -2.2391     -0.0160     -0.0418     -1.6769      0.1117      0.0926
        95         0.1350     -0.0283      0.0265      0.0428      0.3820      0.0557
        96        -0.2727      0.0871     -0.0558      0.0815      0.3137     -0.1940
        97        -0.2592     -0.0605      0.0067     -0.4985     -0.1556     -0.0782
        98        -1.5419      0.2044      0.0962      1.7213      0.5762      0.1766
        99        -0.1310     -0.0872     -0.0139     -0.8182      0.1845     -0.0923
       100        -0.3182      0.0849     -0.0246      0.3226     -0.2631      0.0957
       101         0.1715     -0.0055     -0.0086      0.0453     -0.4246     -0.0661
       102        -0.0534      0.0777      0.0347     -0.0381      0.2546      0.1419
       103        -1.1341      0.0699     -0.0139     -0.6780      0.3207      0.0418
       104        -0.4512      0.3362      0.0466     -0.1532     -0.2128      0.0751
       105        -1.1784      0.2076      0.0023     -0.0113      0.0524      0.0840
       106         0.0129      0.0933     -0.0084     -0.1110     -0.3195     -0.0591
       107        -0.7357     -0.1071      0.0083     -1.3519     -0.4572     -0.0506
       108         0.0750      0.1328     -0.0407      1.0986     -0.3184     -0.1261
       109         2.5560     -0.5734     -0.0025      0.3686      0.0385     -0.0218
       110         1.2429     -0.3353      0.0254     -0.8670     -0.1151      0.0156
       111        -0.4471     -0.0413     -0.0018     -0.2483      0.1125      0.0476
       112        -0.2584     -0.0132     -0.0443     -0.5668      0.1999     -0.0633
       113         0.7220     -0.2502     -0.0590      0.4162      0.1756     -0.0070
       114         0.5529     -0.0538      0.0374     -0.5247      0.1742      0.0418
       115         0.4034     -0.1586      0.0180     -0.6340     -0.6663      0.0767
       116         0.7909      0.1557      0.0478      0.1375      0.0396     -0.0399
       117         3.2396     -0.0566      0.0107      1.4294     -0.2443     -0.1110
       118         0.6850     -0.2032     -0.0429      0.0810     -0.1463     -0.0958
       119        -0.8591      0.2991     -0.0038      0.7972      0.4099      0.0729
       120         0.7313     -0.3860     -0.0091      2.0129      0.3698      0.0912
       121         0.4836      0.3277     -0.0009      1.2647     -0.3328      0.0088
       122        -0.4069     -0.1476      0.0116      0.2969      0.1314      0.1509
       123        -0.0458      0.1072     -0.0006     -0.0205     -0.0744     -0.0409
       124        -0.0648     -0.1231     -0.0295     -0.6099     -0.0942      0.1284
       125        -0.8658     -0.0331      0.0048      0.0256     -0.1239      0.0519
       126        -0.4762      0.1527      0.0081     -0.0037      0.5814      0.0365
       127        -0.6931     -0.2282      0.0285     -0.0774      0.1618     -0.0267
       128        -0.9788     -0.1342     -0.0357     -0.3587     -0.2570     -0.0604
       129        -1.0310      0.0085      0.0236     -0.1788      0.2296      0.0916
       130         0.3755      0.3921     -0.0086      0.2821     -0.0247     -0.1145
       131        -0.0425     -0.0441     -0.0193      0.3279      0.0710     -0.0695
       132        -0.3882      0.0484      0.0340      0.3364     -0.0632      0.0443
       133        -1.0372     -0.3212     -0.0459     -0.3474      0.1537      0.0409
       134         0.6272      0.2242     -0.0088     -0.0263     -0.1563      0.0553
       135         0.8715     -0.0045      0.0088     -0.0799     -0.0705     -0.0941
       136        -0.6689      0.0870      0.0372     -0.0145      0.0589     -0.0054
       137         0.7214      0.0527      0.0140     -0.1367      0.0256     -0.1042
       138         1.4102      0.2715      0.0140     -0.7515     -0.3937     -0.0055
       139         0.2963     -0.0851      0.0406      0.6685     -0.2150      0.0226
       140         1.3994      0.0423      0.0128     -0.5286     -0.5646      0.1739
       141        -0.3139      0.2671      0.0195      0.2752      0.4033     -0.2213
       142         0.9390      0.0577      0.0329     -0.2249     -0.4553     -0.0261
       143        -1.6457     -0.0194      0.0480      1.2840     -0.1271     -0.0930
       144        -3.4763      0.3275     -0.0446     -0.0526      0.0303      0.0198
       145        -4.7260     -0.2908      0.0499      3.0895     -0.0235     -0.0037
       146         1.4094      0.2134     -0.0136     -0.9185      0.1071      0.1524
       147        -0.0341     -0.5649      0.0028      1.3555     -0.3911      0.1565
       148        -0.7258     -0.6798     -0.0060      1.4564      0.5856     -0.1654
       149        -0.8943      0.1477      0.0401     -0.3014      1.3996     -0.0116
       150        -0.5343      0.5620      0.0013      0.5278     -0.1306     -0.0869
 <0|del|b> * <b|rxdel|0> + <0|del|b> * <b|delr+rdel|0>
 Rotatory Strengths (R) in cgs (10**-40 erg-esu-cm/Gauss)
       state          XX          YY          ZZ    R(velocity)    E-M Angle
         1        31.8694     32.3003   -221.6961    -52.5088       91.08
         2        22.0667     -1.4438     26.0000     15.5410       75.59
         3        19.6782      0.2146     22.4550     14.1159       76.71
         4       -11.6961      2.5072     -0.7057     -3.2982      127.82
         5        -0.0118     -7.0827     13.0506      1.9854       76.32
         6        10.7514      2.8564     15.4550      9.6876       43.28
         7        -2.5173     -7.7793    -14.4612     -8.2526      156.56
         8         8.5836     13.6131     17.2913     13.1626       87.81
         9        41.5312     -4.8166    -14.2316      7.4943       88.47
        10       -75.7668     26.3438    -20.1013    -23.1748       98.55
        11      -100.4110      8.0476    -29.2086    -40.5240      150.02
        12        69.6117     19.6432      9.9674     33.0741       80.39
        13         1.0868     -0.2820     -0.4682      0.1122       90.00
        14        -7.3748    -12.3288      6.1101     -4.5312       95.11
        15       -28.6812      3.2556    -27.9168    -17.7808       92.35
        16       114.8682      2.4921     35.5404     50.9669       76.74
        17       -21.3203      4.4377     15.8170     -0.3552       90.55
        18        10.3891      0.1206      6.2623      5.5907       42.79
        19        13.3537     -9.5283     -1.5162      0.7697       86.45
        20        42.4252      1.7471     -1.9933     14.0597       88.62
        21       -78.7457    -28.9554    -26.2023    -44.6345      107.21
        22        27.1505     -5.5278      9.0162     10.2130       76.37
        23        -1.4316      3.1153      2.1021      1.2620       88.48
        24         3.4955    -19.2348      1.0501     -4.8964      111.39
        25        15.6847     23.3814      8.1871     15.7511       69.03
        26       -46.6461      2.2211     -4.9773    -16.4674      156.21
        27       -66.7993      6.1446    -21.4144    -27.3564      132.94
        28        17.6329     11.1360      5.1114     11.2934       61.93
        29       -65.2799     13.3496     -9.5993    -20.5099      123.08
        30       -13.3838      5.6723      5.0068     -0.9015       90.85
        31       -26.6513     -7.3637     14.2046     -6.6035       90.40
        32      -152.7700     50.3155      7.9436    -31.5036       91.71
        33       179.8709    -35.8076     18.9439     54.3357       86.81
        34        -0.8115    -44.3296    -12.0190    -19.0534      118.03
        35        26.8387     -5.6210     -7.5542      4.5545       81.43
        36        48.3823      2.3831     -2.7684     15.9990       52.87
        37       406.6274     21.0846     25.4481    151.0534       71.11
        38      -267.5750    -14.5685    -15.4909    -99.2114      124.48
        39       -42.5884      4.7461     -5.7259    -14.5227       99.31
        40      -117.9660    -10.0167     -2.2147    -43.3991      115.08
        41       -97.5966     -1.2904     23.3897    -25.1658       93.68
        42         1.9782    -21.0686     -3.4711     -7.5205      124.18
        43        82.2498     -2.6962     10.8776     30.1437       82.38
        44        78.5500      1.8568     -7.6485     24.2528       73.37
[...]
 Alpha virt. eigenvalues --    0.30845   0.31486   0.31764   0.32280   0.32524
 Alpha virt. eigenvalues --    0.32616   0.32810   0.32966   0.33319   0.33771
 Alpha virt. eigenvalues --    0.33800   0.34080   0.34204   0.34337   0.34864
 Alpha virt. eigenvalues --    0.35441   0.35704   0.36132   0.36185   0.36461
 Alpha virt. eigenvalues --    0.36888   0.37393   0.38284   0.38538   0.39087
 Alpha virt. eigenvalues --    0.39349   0.39986   0.40085   0.40339   0.40464
 Alpha virt. eigenvalues --    0.40744   0.41001   0.41733   0.42021   0.42152
 Alpha virt. eigenvalues --    0.42177   0.43192   0.43299   0.43476   0.44002
 Alpha virt. eigenvalues --    0.44572   0.44775   0.44936   0.45106   0.45545
 Alpha virt. eigenvalues --    0.45640   0.46224   0.46575   0.46731   0.46977
 Alpha virt. eigenvalues --    0.47394   0.47408   0.47550   0.48003   0.48193
 Alpha virt. eigenvalues --    0.48314   0.48446   0.48628   0.48753   0.49038
 Alpha virt. eigenvalues --    0.49311   0.49562   0.50235   0.50590   0.50769
 Alpha virt. eigenvalues --    0.51233   0.51333   0.51468   0.51818   0.52152
 Alpha virt. eigenvalues --    0.52741   0.53113   0.53729   0.53958   0.54241
 Alpha virt. eigenvalues --    0.54697   0.55165   0.55812   0.56187   0.56315
 Alpha virt. eigenvalues --    0.56632   0.56959   0.57190   0.58036   0.59249
 Alpha virt. eigenvalues --    0.59415   0.59864   0.60072   0.60508   0.60823
 Alpha virt. eigenvalues --    0.61015   0.62028   0.62231   0.62714   0.63187
 Alpha virt. eigenvalues --    0.63552   0.63683   0.64273   0.64543   0.64902
 Alpha virt. eigenvalues --    0.65508   0.65696   0.66142   0.66153   0.66663
 Alpha virt. eigenvalues --    0.66851   0.67774   0.68041   0.68588   0.69124
 Alpha virt. eigenvalues --    0.69308   0.69439   0.70678   0.70769   0.71122
 Alpha virt. eigenvalues --    0.71308   0.71899   0.72536   0.72595   0.73017
 Alpha virt. eigenvalues --    0.73553   0.73950   0.74105   0.74429   0.74564
 Alpha virt. eigenvalues --    0.74769   0.75113   0.75145   0.75969   0.76602
 Alpha virt. eigenvalues --    0.76937   0.77218   0.77663   0.78062   0.78753
 Alpha virt. eigenvalues --    0.78897   0.79284   0.79995   0.80356   0.80611
 Alpha virt. eigenvalues --    0.80850   0.81136   0.82267   0.82505   0.82556
 Alpha virt. eigenvalues --    0.83115   0.83476   0.84644   0.85246   0.85578
 Alpha virt. eigenvalues --    0.86137   0.86480   0.87830   0.88354   0.88595
 Alpha virt. eigenvalues --    0.89369   0.89654   0.90232   0.90884   0.91026
 Alpha virt. eigenvalues --    0.91689   0.92048   0.92646   0.92715   0.93034
 Alpha virt. eigenvalues --    0.93617   0.93747   0.93994   0.94557   0.95182
 Alpha virt. eigenvalues --    0.96151   0.97277   0.97445   0.97693   0.98038
 Alpha virt. eigenvalues --    0.98799   0.99866   0.99982   1.01165   1.02035
 Alpha virt. eigenvalues --    1.02099   1.02394   1.03458   1.04394   1.05683
 Alpha virt. eigenvalues --    1.05999   1.06388   1.07281   1.07774   1.08330
 Alpha virt. eigenvalues --    1.08865   1.10153   1.10476   1.10890   1.11814
 Alpha virt. eigenvalues --    1.12044   1.13126   1.13673   1.14021   1.14493
 Alpha virt. eigenvalues --    1.15084   1.15917   1.16385   1.16674   1.17130
 Alpha virt. eigenvalues --    1.17429   1.18071   1.18562   1.18917   1.19198
 Alpha virt. eigenvalues --    1.20743   1.21124   1.21846   1.22436   1.22650
 Alpha virt. eigenvalues --    1.22924   1.23609   1.24261   1.24802   1.25338
 Alpha virt. eigenvalues --    1.25989   1.26956   1.27033   1.27680   1.28006
 Alpha virt. eigenvalues --    1.28822   1.29038   1.29187   1.30100   1.30536
 Alpha virt. eigenvalues --    1.30652   1.31771   1.32179   1.32418   1.33190
 Alpha virt. eigenvalues --    1.34020   1.34269   1.34481   1.35071   1.35787
 Alpha virt. eigenvalues --    1.36667   1.37445   1.37572   1.38129   1.38675
 Alpha virt. eigenvalues --    1.39075   1.40506   1.40786   1.42348   1.42953
 Alpha virt. eigenvalues --    1.43906   1.44237   1.44421   1.44651   1.45689
 Alpha virt. eigenvalues --    1.46207   1.46831   1.47419   1.47943   1.48989
 Alpha virt. eigenvalues --    1.49405   1.50139   1.50623   1.51204   1.52240
 Alpha virt. eigenvalues --    1.52354   1.52489   1.52661   1.53474   1.53721
 Alpha virt. eigenvalues --    1.54343   1.54735   1.55539   1.55784   1.56726
 Alpha virt. eigenvalues --    1.57021   1.57509   1.57998   1.58639   1.58964
 Alpha virt. eigenvalues --    1.59291   1.59620   1.59775   1.59965   1.60192
 Alpha virt. eigenvalues --    1.60319   1.60446   1.60622   1.61368   1.61978
 Alpha virt. eigenvalues --    1.62048   1.62410   1.63169   1.63508   1.64033
 Alpha virt. eigenvalues --    1.64485   1.64589   1.64912   1.65812   1.66231
 Alpha virt. eigenvalues --    1.66886   1.66972   1.67549   1.68060   1.68683
 Alpha virt. eigenvalues --    1.68986   1.69522   1.70021   1.70454   1.70787
 Alpha virt. eigenvalues --    1.71299   1.71389   1.72301   1.72683   1.73087
 Alpha virt. eigenvalues --    1.73341   1.73675   1.74174   1.74941   1.75433
 Alpha virt. eigenvalues --    1.76368   1.77055   1.77876   1.79001   1.79233
 Alpha virt. eigenvalues --    1.79397   1.80181   1.81824   1.82044   1.82380
 Alpha virt. eigenvalues --    1.82556   1.83530   1.84205   1.84458   1.84818
 Alpha virt. eigenvalues --    1.85285   1.85814   1.86068   1.86342   1.87295
 Alpha virt. eigenvalues --    1.87511   1.88246   1.88764   1.89087   1.89268
 Alpha virt. eigenvalues --    1.89746   1.90074   1.90666   1.91012   1.91816
 Alpha virt. eigenvalues --    1.91992   1.92433   1.92961   1.93601   1.93796
 Alpha virt. eigenvalues --    1.94807   1.94981   1.96001   1.96493   1.97235
 Alpha virt. eigenvalues --    1.97367   1.99383   1.99863   2.00908   2.01846
 Alpha virt. eigenvalues --    2.02079   2.02303   2.02635   2.03152   2.04565
 Alpha virt. eigenvalues --    2.05873   2.06406   2.06656   2.07146   2.07446
 Alpha virt. eigenvalues --    2.08574   2.09867   2.10510   2.11931   2.12456
 Alpha virt. eigenvalues --    2.12991   2.13859   2.14340   2.15090   2.15926
 Alpha virt. eigenvalues --    2.16224   2.17136   2.17490   2.17716   2.18629
 Alpha virt. eigenvalues --    2.19170   2.20593   2.20815   2.22129   2.23011
 Alpha virt. eigenvalues --    2.23180   2.23292   2.23911   2.24272   2.24564
 Alpha virt. eigenvalues --    2.24728   2.25099   2.26433   2.26947   2.27071
 Alpha virt. eigenvalues --    2.28513   2.29344   2.29459   2.31000   2.31988
 Alpha virt. eigenvalues --    2.32605   2.32835   2.33359   2.34152   2.34883
 Alpha virt. eigenvalues --    2.35935   2.36352   2.36972   2.37382   2.38493
 Alpha virt. eigenvalues --    2.39690   2.40308   2.41234   2.41738   2.43159
 Alpha virt. eigenvalues --    2.43222   2.43878   2.44635   2.45334   2.45781
 Alpha virt. eigenvalues --    2.46348   2.47567   2.48655   2.49697   2.50478
 Alpha virt. eigenvalues --    2.51119   2.52003   2.52661   2.53038   2.54229
 Alpha virt. eigenvalues --    2.54725   2.55065   2.55541   2.56146   2.56839
 Alpha virt. eigenvalues --    2.57902   2.58515   2.59044   2.59310   2.60719
 Alpha virt. eigenvalues --    2.61678   2.62199   2.62507   2.63107   2.63791
 Alpha virt. eigenvalues --    2.64245   2.64513   2.64920   2.64997   2.65456
 Alpha virt. eigenvalues --    2.66087   2.66195   2.67313   2.67579   2.67953
 Alpha virt. eigenvalues --    2.68417   2.68631   2.69221   2.69869   2.70083
 Alpha virt. eigenvalues --    2.70699   2.70985   2.71219   2.71876   2.71998
 Alpha virt. eigenvalues --    2.72398   2.72559   2.72667   2.73642   2.73987
 Alpha virt. eigenvalues --    2.74368   2.74920   2.75617   2.75824   2.76039
 Alpha virt. eigenvalues --    2.76474   2.76846   2.77157   2.78131   2.78349
 Alpha virt. eigenvalues --    2.78773   2.79342   2.79885   2.81075   2.81968
 Alpha virt. eigenvalues --    2.82046   2.82623   2.83011   2.83667   2.84191
 Alpha virt. eigenvalues --    2.84242   2.84899   2.85205   2.85569   2.86195
 Alpha virt. eigenvalues --    2.86916   2.88049   2.88835   2.89474   2.89532
 Alpha virt. eigenvalues --    2.89802   2.90091   2.90658   2.91055   2.91326
 Alpha virt. eigenvalues --    2.91491   2.91959   2.92692   2.93287   2.93936
 Alpha virt. eigenvalues --    2.94481   2.94789   2.95931   2.96242   2.96726
 Alpha virt. eigenvalues --    2.97876   2.98047   2.98509   2.98770   2.99330
 Alpha virt. eigenvalues --    2.99603   2.99991   3.00277   3.00961   3.02025
 Alpha virt. eigenvalues --    3.02806   3.03700   3.04060   3.04714   3.05599
 Alpha virt. eigenvalues --    3.06013   3.06893   3.07228   3.07451   3.07757
 Alpha virt. eigenvalues --    3.08645   3.09461   3.10060   3.10971   3.11261
 Alpha virt. eigenvalues --    3.11797   3.12323   3.12524   3.13278   3.14008
 Alpha virt. eigenvalues --    3.14620   3.15139   3.15557   3.15913   3.16221
 Alpha virt. eigenvalues --    3.16588   3.16929   3.17187   3.17350   3.18054
 Alpha virt. eigenvalues --    3.18151   3.18387   3.18808   3.19144   3.19338
 Alpha virt. eigenvalues --    3.19604   3.20013   3.20909   3.21137   3.21830
 Alpha virt. eigenvalues --    3.21867   3.22381   3.22659   3.23399   3.24012
 Alpha virt. eigenvalues --    3.24497   3.24776   3.25294   3.26018   3.26242
 Alpha virt. eigenvalues --    3.26457   3.26839   3.27444   3.27728   3.28405
 Alpha virt. eigenvalues --    3.28924   3.29934   3.30502   3.30783   3.31134
 Alpha virt. eigenvalues --    3.31647   3.32408   3.32754   3.32856   3.33601
 Alpha virt. eigenvalues --    3.34329   3.35137   3.35253   3.35677   3.36423
 Alpha virt. eigenvalues --    3.36736   3.37650   3.37992   3.38541   3.39018
 Alpha virt. eigenvalues --    3.39382   3.39753   3.40363   3.40717   3.41617
 Alpha virt. eigenvalues --    3.42064   3.42213   3.42656   3.43298   3.43534
 Alpha virt. eigenvalues --    3.44183   3.44626   3.44873   3.45599   3.45719
 Alpha virt. eigenvalues --    3.46129   3.47003   3.47316   3.47864   3.48194
 Alpha virt. eigenvalues --    3.48270   3.48921   3.49580   3.49642   3.50343
 Alpha virt. eigenvalues --    3.50475   3.50773   3.50992   3.51876   3.52400
 Alpha virt. eigenvalues --    3.52697   3.53358   3.53801   3.54323   3.55553
 Alpha virt. eigenvalues --    3.55876   3.56610   3.57002   3.57256   3.57302
 Alpha virt. eigenvalues --    3.58465   3.59070   3.59478   3.60129   3.60637
 Alpha virt. eigenvalues --    3.61132   3.61427   3.62820   3.63415   3.64014
 Alpha virt. eigenvalues --    3.64830   3.65178   3.65500   3.66494   3.66957
 Alpha virt. eigenvalues --    3.67779   3.68431   3.69144   3.70136   3.70361
 Alpha virt. eigenvalues --    3.70955   3.71676   3.72744   3.73231   3.73877
 Alpha virt. eigenvalues --    3.75438   3.75937   3.76591   3.77135   3.77373
 Alpha virt. eigenvalues --    3.77966   3.78447   3.80532   3.83589   3.84282
 Alpha virt. eigenvalues --    3.85356   3.85867   3.86623   3.87090   3.87960
 Alpha virt. eigenvalues --    3.88447   3.89782   3.91131   3.91960   3.93215
 Alpha virt. eigenvalues --    3.93711   3.95419   3.95787   3.96792   3.97717
 Alpha virt. eigenvalues --    3.98294   3.99025   4.00037   4.00715   4.01096
 Alpha virt. eigenvalues --    4.01536   4.02172   4.02926   4.03363   4.04585
 Alpha virt. eigenvalues --    4.05266   4.06382   4.07806   4.08589   4.08604
 Alpha virt. eigenvalues --    4.11774   4.12312   4.13262   4.15274   4.15826
 Alpha virt. eigenvalues --    4.17077   4.17318   4.18886   4.20529   4.21458
 Alpha virt. eigenvalues --    4.22023   4.22338   4.22549   4.23338   4.23910
 Alpha virt. eigenvalues --    4.24999   4.25939   4.26217   4.26502   4.28085
 Alpha virt. eigenvalues --    4.28254   4.28905   4.29347   4.30121   4.30924
 Alpha virt. eigenvalues --    4.32952   4.33456   4.34456   4.34948   4.35590
 Alpha virt. eigenvalues --    4.35686   4.36667   4.36985   4.38890   4.40189
 Alpha virt. eigenvalues --    4.41155   4.42276   4.42519   4.44050   4.45410
 Alpha virt. eigenvalues --    4.46116   4.47448   4.48294   4.49666   4.49905
 Alpha virt. eigenvalues --    4.51533   4.53624   4.54038   4.57113   4.58224
 Alpha virt. eigenvalues --    4.59056   4.60458   4.61354   4.62425   4.64907
 Alpha virt. eigenvalues --    4.65563   4.66222   4.66530   4.66596   4.67677
 Alpha virt. eigenvalues --    4.70561   4.74436   4.76306   4.77020   4.78589
 Alpha virt. eigenvalues --    4.79290   4.82374   4.83156   4.84052   4.84796
 Alpha virt. eigenvalues --    4.84921   4.85750   4.86555   4.90003   4.91554
 Alpha virt. eigenvalues --    4.93406   4.94605   4.96772   4.98258   5.01879
 Alpha virt. eigenvalues --    5.02510   5.03244   5.04088   5.05010   5.06502
 Alpha virt. eigenvalues --    5.07609   5.09852   5.12332   5.15061   5.15395
 Alpha virt. eigenvalues --    5.16377   5.17257   5.18420   5.18933   5.21839
 Alpha virt. eigenvalues --    5.23517   5.24172   5.25488   5.26684   5.29267
 Alpha virt. eigenvalues --    5.31435   5.32685   5.33126   5.33751   5.35928
 Alpha virt. eigenvalues --    5.39328   5.40597   5.42043   5.45755   5.48140
 Alpha virt. eigenvalues --    5.49757   5.52049   5.58358   5.59737   5.60804
 Alpha virt. eigenvalues --    5.61259   5.72239   5.73295   5.90457   5.92775
 Alpha virt. eigenvalues --    5.97715   6.01383   6.05289   6.06549   6.18653
 Alpha virt. eigenvalues --    6.20509   8.91615   8.91906   9.49740   9.51019
 Alpha virt. eigenvalues --    9.54291   9.55915  20.36321  20.37788  22.19078
 Alpha virt. eigenvalues --   22.20152  22.38097  22.40528  22.57221  22.59038
 Alpha virt. eigenvalues --   22.60350  22.62181  22.64664  22.64724  22.66023
 Alpha virt. eigenvalues --   22.66353  22.69207  22.71010  22.74124  22.74719
 Alpha virt. eigenvalues --   22.77314  22.85708  22.91978  22.92014  22.95711
 Alpha virt. eigenvalues --   23.02609  23.06523  23.39671  23.41150  33.08157
 Alpha virt. eigenvalues --   33.08878
          Condensed to atoms (all electrons):
 Mulliken charges:
               1
     1  C   -0.317081
     2  C   -0.067683
     3  C   -0.263376
     4  C   -0.056697
     5  C    0.220478
     6  S    0.050209
     7  C    0.003296
     8  C    0.165428
     9  N   -0.001558
    10  C   -0.193981
    11  C   -0.175612
    12  C   -0.149782
    13  C   -0.266977
    14  C   -0.180237
    15  C   -0.392986
    16  C   -0.275001
    17  C   -0.035969
    18  C   -0.319419
    19  C    0.197505
    20  S    0.078113
    21  C   -0.010141
    22  C    0.175276
    23  N    0.008780
    24  C   -0.189123
    25  C   -0.172190
    26  C   -0.153103
    27  C   -0.267200
    28  C   -0.223070
    29  C   -0.395078
    30  H    0.182115
    31  H    0.162801
    32  H    0.153705
    33  H    0.168019
    34  H    0.180832
    35  H    0.173356
    36  H    0.174740
    37  H    0.189113
    38  H    0.168385
    39  H    0.167995
    40  H    0.149014
    41  H    0.148007
    42  H    0.147026
    43  H    0.153846
    44  H    0.181506
    45  H    0.171354
    46  H    0.180835
    47  H    0.174163
    48  H    0.175336
    49  H    0.193757
    50  H    0.181478
    51  H    0.175359
    52  H    0.148743
    53  H    0.151844
    54  H    0.153849
 Sum of Mulliken charges =   1.00000
 Mulliken charges with hydrogens summed into heavy atoms:
               1
     1  C   -0.134966
     2  C    0.095118
     3  C   -0.109671
     4  C    0.111322
     5  C    0.220478
     6  S    0.050209
     7  C    0.003296
     8  C    0.165428
     9  N   -0.001558
    10  C   -0.013149
    11  C   -0.002256
    12  C    0.024958
    13  C   -0.077864
    14  C    0.156143
    15  C    0.051060
    16  C   -0.121155
    17  C    0.145537
    18  C   -0.148064
    19  C    0.197505
    20  S    0.078113
    21  C   -0.010141
    22  C    0.175276
    23  N    0.008780
    24  C   -0.008288
    25  C    0.001973
    26  C    0.022233
    27  C   -0.073443
    28  C    0.133768
    29  C    0.059358
 Electronic spatial extent (au):  <R**2>=          33478.7827
 Charge=              1.0000 electrons
 Dipole moment (field-independent basis, Debye):
    X=             -0.7646    Y=              0.5498    Z=              0.6251  Tot=              1.1304
 Quadrupole moment (field-independent basis, Debye-Ang):
   XX=             32.4909   YY=           -148.9250   ZZ=           -194.3395
   XY=             26.6937   XZ=              4.9285   YZ=              5.0739
 Traceless Quadrupole moment (field-independent basis, Debye-Ang):
   XX=            136.0821   YY=            -45.3338   ZZ=            -90.7483
   XY=             26.6937   XZ=              4.9285   YZ=              5.0739
 Octapole moment (field-independent basis, Debye-Ang**2):
  XXX=            -82.2066  YYY=              8.3320  ZZZ=              4.3808  XYY=            -42.0111
  XXY=             17.2668  XXZ=             -8.1840  XZZ=              5.8216  YZZ=             -0.4685
  YYZ=              4.1109  XYZ=             22.9819
 Hexadecapole moment (field-independent basis, Debye-Ang**3):
 XXXX=         -27365.9668 YYYY=          -2517.2652 ZZZZ=           -393.0563 XXXY=            758.7032
 XXXZ=              2.2984 YYYX=            107.2166 YYYZ=             38.4143 ZZZX=              2.9419
 ZZZY=              6.6926 XXYY=          -6230.0677 XXZZ=          -7845.1490 YYZZ=           -556.5740
 XXYZ=            249.7015 YYXZ=             37.4631 ZZXY=             64.6586
 N-N= 2.585855029803D+03 E-N=-9.539917559255D+03  KE= 1.866105227487D+03
 Unable to Open any file for archive entry.
 1\1\GINC-CN01\SP\RCAM-B3LYP TD-FC\def2TZVP\C25H25N2S2(1+)\2100011873\0
 4-Nov-2023\0\\# td=(nstates=150) CAM-b3lyp/def2TZVP scrf(smd, solvent=
 ethanol)\\A-4\\1,1\C,0,-3.663712,-1.051948,-0.111557\C,0,-2.389638,-0.
 479979,-0.083458\C,0,-1.194967,-1.195004,-0.064041\C,0,0.058349,-0.578
 322,-0.035613\C,0,-4.855344,-0.323764,-0.124892\S,0,-4.926662,1.436711
 ,-0.060618\C,0,-6.688233,1.402029,-0.083292\C,0,-7.154955,0.079357,-0.
 139452\N,0,-6.111858,-0.857268,-0.18359\C,0,-7.565153,2.482703,-0.0489
 16\C,0,-8.934956,2.22022,-0.065794\C,0,-9.407072,0.90276,-0.113224\C,0
 ,-8.529361,-0.179533,-0.14882\C,0,-6.366284,-2.306872,-0.248314\C,0,-6
 .467137,-2.955883,1.133259\C,0,1.282162,-1.246091,-0.016052\C,0,2.5111
 27,-0.582889,0.011938\C,0,3.741215,-1.244345,-0.008435\C,0,5.052439,-0
 .74902,0.008808\S,0,6.36259,-1.866987,-0.365292\C,0,7.562983,-0.600806
 ,-0.16552\C,0,6.941017,0.612357,0.169846\N,0,5.544832,0.495298,0.28326
 1\C,0,8.946272,-0.695535,-0.30211\C,0,9.708364,0.454142,-0.100703\C,0,
 9.092982,1.668657,0.22877\C,0,7.709445,1.764545,0.3665\C,0,4.732809,1.
 623027,0.770139\C,0,4.282282,2.569892,-0.344236\H,0,-3.731831,-2.13482
 6,-0.113428\H,0,-2.310249,0.607987,-0.076294\H,0,-1.237617,-2.283434,-
 0.072611\H,0,0.079156,0.512977,-0.027655\H,0,-7.192939,3.501353,-0.008
 437\H,0,-9.638205,3.046285,-0.038434\H,0,-10.476042,0.714855,-0.119701
 \H,0,-8.914544,-1.192671,-0.174894\H,0,-7.289207,-2.442036,-0.816617\H
 ,0,-5.570728,-2.757498,-0.845647\H,0,-6.666359,-4.026758,1.023381\H,0,
 -5.536643,-2.835556,1.696522\H,0,-7.280055,-2.514652,1.717995\H,0,1.27
 9871,-2.33528,-0.024232\H,0,2.47239,0.50228,0.013643\H,0,3.691082,-2.3
 26769,-0.105404\H,0,9.416627,-1.639291,-0.55871\H,0,10.787594,0.40544,
 -0.203502\H,0,9.700309,2.555856,0.37729\H,0,7.251286,2.716142,0.611187
 \H,0,3.887111,1.202637,1.316886\H,0,5.342782,2.154926,1.505154\H,0,3.6
 68719,2.054906,-1.089954\H,0,3.6925,3.387191,0.083941\H,0,5.141488,3.0
 05946,-0.862588\\Version=ES64L-G16RevC.02\State=1-A\HF=-1873.275799\RM
 SD=1.887e-09\PG=C01 [X(C25H25N2S2)]\\@
 The archive entry for this job was punched.


 "A LITTLE BIT GOES A LONG WAY"
 R.S. MULLIKEN AS QUOTED BY K. RUEDENBERG
 Job cpu time:       4 days  4 hours 16 minutes 57.7 seconds.
 Elapsed time:       0 days  3 hours 16 minutes 46.4 seconds.
 File lengths (MBytes):  RWF=  43424 Int=      0 D2E=      0 Chk=   4592 Scr=     32
 Normal termination of Gaussian 16 at Sat Nov  4 05:38:14 2023.
