 Entering Gaussian System, Link 0=g16
 Initial command:
 /nfs-share/home/2100011873/Gaussian16_AVX2/g16/l1.exe "/nfs-share/home/2100011873/GaussTmp/Gau-73156.inp" -scrdir="/nfs-share/home/2100011873/GaussTmp/"
 Entering Link 1 = /nfs-share/home/2100011873/Gaussian16_AVX2/g16/l1.exe PID=     73157.
  
 Copyright (c) 1988-2021, Gaussian, Inc.  All Rights Reserved.
  
 This is part of the Gaussian(R) 16 program.  It is based on
 the Gaussian(R) 09 system (copyright 2009, Gaussian, Inc.),
 the Gaussian(R) 03 system (copyright 2003, Gaussian, Inc.),
 the Gaussian(R) 98 system (copyright 1998, Gaussian, Inc.),
 the Gaussian(R) 94 system (copyright 1995, Gaussian, Inc.),
 the Gaussian 92(TM) system (copyright 1992, Gaussian, Inc.),
 the Gaussian 90(TM) system (copyright 1990, Gaussian, Inc.),
 the Gaussian 88(TM) system (copyright 1988, Gaussian, Inc.),
 the Gaussian 86(TM) system (copyright 1986, Carnegie Mellon
 University), and the Gaussian 82(TM) system (copyright 1983,
 Carnegie Mellon University). Gaussian is a federally registered
 trademark of Gaussian, Inc.
  
 This software contains proprietary and confidential information,
 including trade secrets, belonging to Gaussian, Inc.
  
 This software is provided under written license and may be
 used, copied, transmitted, or stored only in accord with that
 written license.
  
 The following legend is applicable only to US Government
 contracts under FAR:
  
                    RESTRICTED RIGHTS LEGEND
  
 Use, reproduction and disclosure by the US Government is
 subject to restrictions as set forth in subparagraphs (a)
 and (c) of the Commercial Computer Software - Restricted
 Rights clause in FAR 52.227-19.
  
 Gaussian, Inc.
 340 Quinnipiac St., Bldg. 40, Wallingford CT 06492
  
  
 ---------------------------------------------------------------
 Warning -- This program may not be used in any manner that
 competes with the business of Gaussian, Inc. or will provide
 assistance to any competitor of Gaussian, Inc.  The licensee
 of this program is prohibited from giving any competitor of
 Gaussian, Inc. access to this program.  By using this program,
 the user acknowledges that Gaussian, Inc. is engaged in the
 business of creating and licensing software in the field of
 computational chemistry and represents and warrants to the
 licensee that it is not a competitor of Gaussian, Inc. and that
 it will not use this program in any manner prohibited above.
 ---------------------------------------------------------------
  

 Cite this work as:
 Gaussian 16, Revision C.02,
 M. J. Frisch, G. W. Trucks, H. B. Schlegel, G. E. Scuseria, 
 M. A. Robb, J. R. Cheeseman, G. Scalmani, V. Barone, 
 G. A. Petersson, H. Nakatsuji, X. Li, M. Caricato, A. V. Marenich, 
 J. Bloino, B. G. Janesko, R. Gomperts, B. Mennucci, H. P. Hratchian, 
 J. V. Ortiz, A. F. Izmaylov, J. L. Sonnenberg, D. Williams-Young, 
 F. Ding, F. Lipparini, F. Egidi, J. Goings, B. Peng, A. Petrone, 
 T. Henderson, D. Ranasinghe, V. G. Zakrzewski, J. Gao, N. Rega, 
 G. Zheng, W. Liang, M. Hada, M. Ehara, K. Toyota, R. Fukuda, 
 J. Hasegawa, M. Ishida, T. Nakajima, Y. Honda, O. Kitao, H. Nakai, 
 T. Vreven, K. Throssell, J. A. Montgomery, Jr., J. E. Peralta, 
 F. Ogliaro, M. J. Bearpark, J. J. Heyd, E. N. Brothers, K. N. Kudin, 
 V. N. Staroverov, T. A. Keith, R. Kobayashi, J. Normand, 
 K. Raghavachari, A. P. Rendell, J. C. Burant, S. S. Iyengar, 
 J. Tomasi, M. Cossi, J. M. Millam, M. Klene, C. Adamo, R. Cammi, 
 J. W. Ochterski, R. L. Martin, K. Morokuma, O. Farkas, 
 J. B. Foresman, and D. J. Fox, Gaussian, Inc., Wallingford CT, 2019.
 
 ******************************************
 Gaussian 16:  ES64L-G16RevC.02  7-Dec-2021
                 4-Nov-2023 
 ******************************************
 %nprocshared=32
 Will use up to   32 processors via shared memory.
 %mem=128GB
 ------------------------------------------------------------
 # td=(nstates=50) wB97XD/def2TZVP scrf(smd, solvent=ethanol)
 ------------------------------------------------------------
 1/38=1,172=1/1;
 2/12=2,17=6,18=5,40=1/2;
 3/5=44,7=101,11=9,25=1,30=1,70=32201,72=4,74=-58/1,2,3,8;
 4//1;
 5/5=2,38=5,53=4/2;
 8/6=1,10=1,108=50/1;
 9/41=50,42=1,70=2/14;
 6/7=2,8=2,9=2,10=2/1;
 99/5=1,9=1/99;
 ---
 B-2
 ---
 Symbolic Z-matrix:
 Charge =  0 Multiplicity = 1
 C                     4.18604  -0.98524  -0.00011 
 C                     2.96568  -0.09996   0.00002 
 C                     1.72426  -0.63647  -0.00021 
 C                     0.45258   0.05967  -0.00018 
 C                    -0.74108  -0.57941  -0.00021 
 C                    -2.06437   0.04042  -0.00014 
 C                    -3.15288  -0.76323   0.00025 
 C                    -4.60417  -0.38585   0.00043 
 C                     3.26039   1.37827   0.00057 
 C                    -2.13318   1.55026  -0.00054 
 H                     4.81718  -0.79122  -0.87967 
 H                     4.8171   -0.79165   0.8796 
 H                     3.9221   -2.04745  -0.00037 
 H                     1.65238  -1.72528  -0.00049 
 H                     0.46913   1.14647  -0.00011 
 H                    -0.73542  -1.67054  -0.0003 
 H                    -2.96813  -1.83864   0.00044 
 H                    -4.77347   0.69375   0.00148 
 H                    -5.11489  -0.80271  -0.87923 
 H                    -5.11504  -0.80447   0.87914 
 H                     2.363     2.00076   0.00008 
 H                     3.85901   1.65372   0.88055 
 H                     3.86032   1.65418  -0.87836 
 H                    -1.62727   1.96404  -0.8821 
 H                    -3.15869   1.92368  -0.00045 
 H                    -1.62693   1.9646    0.88057 
 
                          Input orientation:                          
 ---------------------------------------------------------------------
 Center     Atomic      Atomic             Coordinates (Angstroms)
 Number     Number       Type             X           Y           Z
 ---------------------------------------------------------------------
      1          6           0        4.186043   -0.985243   -0.000113
      2          6           0        2.965678   -0.099955    0.000017
      3          6           0        1.724259   -0.636470   -0.000213
      4          6           0        0.452578    0.059668   -0.000179
      5          6           0       -0.741079   -0.579413   -0.000205
      6          6           0       -2.064372    0.040415   -0.000137
      7          6           0       -3.152878   -0.763225    0.000253
      8          6           0       -4.604173   -0.385851    0.000427
      9          6           0        3.260391    1.378273    0.000567
     10          6           0       -2.133175    1.550261   -0.000541
     11          1           0        4.817179   -0.791217   -0.879673
     12          1           0        4.817098   -0.791647    0.879598
     13          1           0        3.922096   -2.047445   -0.000374
     14          1           0        1.652379   -1.725280   -0.000493
     15          1           0        0.469127    1.146468   -0.000113
     16          1           0       -0.735417   -1.670538   -0.000304
     17          1           0       -2.968126   -1.838635    0.000440
     18          1           0       -4.773466    0.693748    0.001475
     19          1           0       -5.114894   -0.802710   -0.879231
     20          1           0       -5.115042   -0.804470    0.879137
     21          1           0        2.363003    2.000757    0.000075
     22          1           0        3.859006    1.653716    0.880554
     23          1           0        3.860320    1.654180   -0.878355
     24          1           0       -1.627265    1.964044   -0.882102
     25          1           0       -3.158688    1.923675   -0.000452
     26          1           0       -1.626926    1.964596    0.880567
 ---------------------------------------------------------------------
                    Distance matrix (angstroms):
                    1          2          3          4          5
     1  C    0.000000
     2  C    1.507656   0.000000
     3  C    2.486367   1.352394   0.000000
     4  C    3.876932   2.518164   1.449752   0.000000
     5  C    4.943807   3.737637   2.465998   1.353973   0.000000
     6  C    6.334008   5.032008   3.848623   2.517024   1.461264
     7  C    7.342278   6.154401   4.878784   3.698171   2.418793
     8  C    8.810628   7.575248   6.333393   5.076339   3.867940
     9  C    2.538314   1.507320   2.533553   3.102021   4.454694
    10  C    6.808913   5.359246   4.434139   2.984625   2.544296
    11  H    1.099820   2.163274   3.219247   4.532908   5.631390
    12  H    1.099819   2.163298   3.219286   4.532966   5.631379
    13  H    1.094505   2.169667   2.611769   4.059246   4.888795
    14  H    2.639528   2.089602   1.091180   2.150712   2.653611
    15  H    4.284817   2.790401   2.180418   1.086926   2.107905
    16  H    4.968943   4.020552   2.668202   2.098796   1.091140
    17  H    7.204888   6.183287   4.843932   3.912131   2.558394
    18  H    9.115471   7.779738   6.632489   5.264370   4.228603
    19  H    9.344174   8.158590   6.897414   5.702032   4.466856
    20  H    9.344300   8.158874   6.897646   5.702484   4.467152
    21  H    3.498524   2.185454   2.713478   2.723518   4.036410
    22  H    2.801184   2.156094   3.252360   3.862697   5.188775
    23  H    2.800707   2.156133   3.252840   3.863466   5.189697
    24  H    6.578050   5.112079   4.332795   2.954688   2.834121
    25  H    7.899802   6.450034   5.513394   4.063959   3.479983
    26  H    6.577823   5.111727   4.332639   2.954454   2.834161
                    6          7          8          9         10
     6  C    0.000000
     7  C    1.353027   0.000000
     8  C    2.575324   1.499556   0.000000
     9  C    5.490261   6.761363   8.059994   0.000000
    10  C    1.511413   2.528243   3.139166   5.396308   0.000000
    11  H    6.987198   8.018532   9.471049   2.811601   7.386665
    12  H    6.987195   8.018390   9.470901   2.811509   7.386845
    13  H    6.340107   7.190583   8.686666   3.489040   7.043422
    14  H    4.114841   4.900617   6.398321   3.495389   5.005955
    15  H    2.764411   4.094612   5.299658   2.800873   2.633444
    16  H    2.166444   2.582118   4.076481   5.026105   3.511022
    17  H    2.085090   1.091165   2.187974   7.010201   3.490238
    18  H    2.786761   2.179238   1.092792   8.062967   2.775744
    19  H    3.284715   2.150479   1.099275   8.699203   3.898617
    20  H    3.285352   2.150401   1.099254   8.699663   3.900016
    21  H    4.841961   6.169647   7.364607   1.092150   4.518690
    22  H    6.201997   7.468805   8.749849   1.099357   6.057497
    23  H    6.203022   7.469990   8.751093   1.099338   6.058328
    24  H    2.160850   3.247159   3.893950   5.001141   1.097411
    25  H    2.178117   2.686906   2.724580   6.442208   1.091382
    26  H    2.160896   3.247228   3.894001   5.000404   1.097412
                   11         12         13         14         15
    11  H    0.000000
    12  H    1.759271   0.000000
    13  H    1.775514   1.775502   0.000000
    14  H    3.414878   3.414920   2.292467   0.000000
    15  H    4.840848   4.840974   4.703624   3.105966   0.000000
    16  H    5.690151   5.690088   4.672739   2.388423   3.063731
    17  H    7.904597   7.904354   6.893385   4.621895   4.552532
    18  H    9.744846   9.744558   9.117398   6.866089   5.262104
    19  H    9.932080  10.086529   9.164548   6.886167   5.979418
    20  H   10.086754   9.932148   9.164518   6.886191   5.980149
    21  H    3.819955   3.820165   4.338054   3.793196   2.077637
    22  H    3.161359   2.626355   3.805077   4.130746   3.538948
    23  H    2.625937   3.160363   3.804825   4.131149   3.539671
    24  H    7.008732   7.226841   6.903977   5.014420   2.416856
    25  H    8.471017   8.471164   8.118331   6.038314   3.710134
    26  H    7.226302   7.008732   6.903925   5.014508   2.416272
                   16         17         18         19         20
    16  H    0.000000
    17  H    2.239028   0.000000
    18  H    4.679283   3.110019   0.000000
    19  H    4.550325   2.540782   1.769633   0.000000
    20  H    4.550231   2.539853   1.769639   1.758369   0.000000
    21  H    4.804021   6.569769   7.255168   8.034398   8.035123
    22  H    5.738928   7.718863   8.730057   9.468989   9.304634
    23  H    5.739819   7.720085   8.731483   9.305416   9.470526
    24  H    3.844886   4.127609   3.506129   4.451796   4.788655
    25  H    4.334814   3.767133   2.029835   3.468742   3.470414
    26  H    3.845117   4.127712   3.505506   4.787566   4.453614
                   21         22         23         24         25
    21  H    0.000000
    22  H    1.770228   0.000000
    23  H    1.770230   1.758910   0.000000
    24  H    4.086786   5.770826   5.496328   0.000000
    25  H    5.522229   7.077929   7.078829   1.767539   0.000000
    26  H    4.086087   5.494734   5.770618   1.762669   1.767530
                   26
    26  H    0.000000
 Stoichiometry    C10H16
 Framework group  C1[X(C10H16)]
 Deg. of freedom    72
 Full point group                 C1      NOp   1
 Largest Abelian subgroup         C1      NOp   1
 Largest concise Abelian subgroup C1      NOp   1
                         Standard orientation:                         
 ---------------------------------------------------------------------
 Center     Atomic      Atomic             Coordinates (Angstroms)
 Number     Number       Type             X           Y           Z
 ---------------------------------------------------------------------
      1          6           0        4.186043   -0.985243   -0.000113
      2          6           0        2.965678   -0.099955    0.000017
      3          6           0        1.724259   -0.636470   -0.000213
      4          6           0        0.452578    0.059668   -0.000179
      5          6           0       -0.741079   -0.579413   -0.000205
      6          6           0       -2.064372    0.040415   -0.000137
      7          6           0       -3.152878   -0.763225    0.000253
      8          6           0       -4.604173   -0.385851    0.000427
      9          6           0        3.260391    1.378273    0.000567
     10          6           0       -2.133175    1.550261   -0.000541
     11          1           0        4.817179   -0.791217   -0.879673
     12          1           0        4.817098   -0.791647    0.879598
     13          1           0        3.922096   -2.047445   -0.000374
     14          1           0        1.652379   -1.725280   -0.000493
     15          1           0        0.469127    1.146468   -0.000113
     16          1           0       -0.735417   -1.670538   -0.000304
     17          1           0       -2.968126   -1.838635    0.000440
     18          1           0       -4.773466    0.693748    0.001475
     19          1           0       -5.114894   -0.802710   -0.879231
     20          1           0       -5.115042   -0.804470    0.879137
     21          1           0        2.363003    2.000757    0.000075
     22          1           0        3.859006    1.653716    0.880554
     23          1           0        3.860320    1.654180   -0.878355
     24          1           0       -1.627265    1.964044   -0.882102
     25          1           0       -3.158688    1.923675   -0.000452
     26          1           0       -1.626926    1.964596    0.880567
 ---------------------------------------------------------------------
 Rotational constants (GHZ):           4.0045797           0.4300443           0.3921027
 Standard basis: def2TZVP (5D, 7F)
 There are   456 symmetry adapted cartesian basis functions of A   symmetry.
 There are   406 symmetry adapted basis functions of A   symmetry.
   406 basis functions,   638 primitive gaussians,   456 cartesian basis functions
    38 alpha electrons       38 beta electrons
       nuclear repulsion energy       478.6004483981 Hartrees.
 NAtoms=   26 NActive=   26 NUniq=   26 SFac= 1.00D+00 NAtFMM=   60 NAOKFM=F Big=F
 Integral buffers will be    131072 words long.
 Raffenetti 1 integral format.
 Two-electron integral symmetry is turned on.
 Nuclear repulsion after empirical dispersion term =      478.5863004991 Hartrees.
 ------------------------------------------------------------------------------
 Polarizable Continuum Model (PCM)
 =================================
 Model                : PCM.
 Atomic radii         : SMD-Coulomb.
 Polarization charges : Total charges.
 Charge compensation  : None.
 Solution method      : On-the-fly selection.
 Cavity type          : VdW (van der Waals Surface) (Alpha=1.000).
 Cavity algorithm     : GePol (No added spheres)
                        Default sphere list used, NSphG=   26.
                        Lebedev-Laikov grids with approx.  5.0 points / Ang**2.
                        Smoothing algorithm: York/Karplus (Gamma=1.0000).
                        Polarization charges: spherical gaussians, with
                                              point-specific exponents (IZeta= 3).
                        Self-potential: point-specific (ISelfS= 7).
                        Self-field    : sphere-specific E.n sum rule (ISelfD= 2).
 Solvent              : Ethanol, Eps=  24.852000 Eps(inf)=   1.852593
 ------------------------------------------------------------------------------
 ------------------------------------------------------------------------------
 Atomic radii for non-electrostatic terms: SMD-CDS.
 ------------------------------------------------------------------------------
 Nuclear repulsion after PCM non-electrostatic terms =      478.5845839701 Hartrees.
 One-electron integrals computed using PRISM.
   1 Symmetry operations used in ECPInt.
 ECPInt:  NShTT=   15225 NPrTT=   44224 LenC2=   13758 LenP2D=   30430.
 LDataN:  DoStor=T MaxTD1= 6 Len=  172
 NBasis=   406 RedAO= T EigKep=  3.93D-05  NBF=   406
 NBsUse=   406 1.00D-06 EigRej= -1.00D+00 NBFU=   406
 ExpMin= 9.52D-02 ExpMax= 1.36D+04 ExpMxC= 4.63D+02 IAcc=3 IRadAn=         5 AccDes= 0.00D+00
 Harris functional with IExCor= 4639 and IRadAn=       5 diagonalized for initial guess.
 HarFok:  IExCor= 4639 AccDes= 0.00D+00 IRadAn=         5 IDoV= 1 UseB2=F ITyADJ=14
 ICtDFT=  3500011 ScaDFX=  1.000000  1.000000  1.000000  1.000000
 FoFCou: FMM=F IPFlag=           0 FMFlag=      100000 FMFlg1=           0
         NFxFlg=           0 DoJE=T BraDBF=F KetDBF=T FulRan=T
         wScrn=  0.000000 ICntrl=       500 IOpCl=  0 I1Cent=   200000004 NGrid=           0
         NMat0=    1 NMatS0=      1 NMatT0=    0 NMatD0=    1 NMtDS0=    0 NMtDT0=    0
 Petite list used in FoFCou.
 Requested convergence on RMS density matrix=1.00D-08 within 128 cycles.
 Requested convergence on MAX density matrix=1.00D-06.
 Requested convergence on             energy=1.00D-06.
 No special actions if energy rises.
 Inv3:  Mode=1 IEnd=    11116875.
 Iteration    1 A*A^-1 deviation from unit magnitude is 3.11D-15 for    228.
 Iteration    1 A*A^-1 deviation from orthogonality  is 2.30D-15 for   1524     52.
 Iteration    1 A^-1*A deviation from unit magnitude is 3.11D-15 for    228.
 Iteration    1 A^-1*A deviation from orthogonality  is 2.07D-15 for   1550    268.
 Error on total polarization charges =  0.05852
 SCF Done:  E(RwB97XD) =  -390.684975575     A.U. after   13 cycles
            NFock= 13  Conv=0.49D-08     -V/T= 2.0062
 SMD-CDS (non-electrostatic) energy       (kcal/mol) =      -1.08
 (included in total energy above)
 DoSCS=F DFT=T ScalE2(SS,OS)=  1.000000  1.000000
 ExpMin= 9.52D-02 ExpMax= 1.36D+04 ExpMxC= 4.63D+02 IAcc=3 IRadAn=         5 AccDes= 0.00D+00
 HarFok:  IExCor=  205 AccDes= 0.00D+00 IRadAn=         5 IDoV=-2 UseB2=F ITyADJ=14
 ICtDFT= 12500011 ScaDFX=  1.000000  1.000000  1.000000  1.000000
 Range of M.O.s used for correlation:    11   406
 NBasis=   406 NAE=    38 NBE=    38 NFC=    10 NFV=     0
 NROrb=    396 NOA=    28 NOB=    28 NVA=   368 NVB=   368

 **** Warning!!: The largest alpha MO coefficient is  0.36212131D+02

 NEqPCM:  Using non-equilibrium solvation (IEInf=1, Eps=  24.8520, EpsInf=   1.8526)
 Inv3:  Mode=1 IEnd=    11116875.
 Iteration    1 A*A^-1 deviation from unit magnitude is 3.89D-15 for    120.
 Iteration    1 A*A^-1 deviation from orthogonality  is 2.49D-15 for   1342    412.
 Iteration    1 A^-1*A deviation from unit magnitude is 3.44D-15 for    120.
 Iteration    1 A^-1*A deviation from orthogonality  is 1.57D-15 for   1848    506.
 Orbital symmetries:
       Occupied  (A) (A) (A) (A) (A) (A) (A) (A) (A) (A) (A) (A)
                 (A) (A) (A) (A) (A) (A) (A) (A) (A) (A) (A) (A)
                 (A) (A) (A) (A) (A) (A) (A) (A) (A) (A) (A) (A)
                 (A) (A)
       Virtual   (A) (A) (A) (A) (A) (A) (A) (A) (A) (A) (A) (A)
                 (A) (A) (A) (A) (A) (A) (A) (A) (A) (A) (A) (A)
                 (A) (A) (A) (A) (A) (A) (A) (A) (A) (A) (A) (A)
                 (A) (A) (A) (A) (A) (A) (A) (A) (A) (A) (A) (A)
                 (A) (A) (A) (A) (A) (A) (A) (A) (A) (A) (A) (A)
                 (A) (A) (A) (A) (A) (A) (A) (A) (A) (A) (A) (A)
                 (A) (A) (A) (A) (A) (A) (A) (A) (A) (A) (A) (A)
                 (A) (A) (A) (A) (A) (A) (A) (A) (A) (A) (A) (A)
                 (A) (A) (A) (A) (A) (A) (A) (A) (A) (A) (A) (A)
                 (A) (A) (A) (A) (A) (A) (A) (A) (A) (A) (A) (A)
                 (A) (A) (A) (A) (A) (A) (A) (A) (A) (A) (A) (A)
                 (A) (A) (A) (A) (A) (A) (A) (A) (A) (A) (A) (A)
                 (A) (A) (A) (A) (A) (A) (A) (A) (A) (A) (A) (A)
                 (A) (A) (A) (A) (A) (A) (A) (A) (A) (A) (A) (A)
                 (A) (A) (A) (A) (A) (A) (A) (A) (A) (A) (A) (A)
                 (A) (A) (A) (A) (A) (A) (A) (A) (A) (A) (A) (A)
                 (A) (A) (A) (A) (A) (A) (A) (A) (A) (A) (A) (A)
                 (A) (A) (A) (A) (A) (A) (A) (A) (A) (A) (A) (A)
                 (A) (A) (A) (A) (A) (A) (A) (A) (A) (A) (A) (A)
                 (A) (A) (A) (A) (A) (A) (A) (A) (A) (A) (A) (A)
                 (A) (A) (A) (A) (A) (A) (A) (A) (A) (A) (A) (A)
                 (A) (A) (A) (A) (A) (A) (A) (A) (A) (A) (A) (A)
                 (A) (A) (A) (A) (A) (A) (A) (A) (A) (A) (A) (A)
                 (A) (A) (A) (A) (A) (A) (A) (A) (A) (A) (A) (A)
                 (A) (A) (A) (A) (A) (A) (A) (A) (A) (A) (A) (A)
                 (A) (A) (A) (A) (A) (A) (A) (A) (A) (A) (A) (A)
                 (A) (A) (A) (A) (A) (A) (A) (A) (A) (A) (A) (A)
                 (A) (A) (A) (A) (A) (A) (A) (A) (A) (A) (A) (A)
                 (A) (A) (A) (A) (A) (A) (A) (A) (A) (A) (A) (A)
                 (A) (A) (A) (A) (A) (A) (A) (A) (A) (A) (A) (A)
                 (A) (A) (A) (A) (A) (A) (A) (A)
   200 initial guesses have been made.
 Convergence on wavefunction:    0.001000000000000
 Iteration     1 Dimension   200 NMult     0 NNew    200
 CISAX will form   200 AO SS matrices at one time.
 New state      3 was old state      4
 New state      4 was old state      9
 New state      5 was old state      6
 New state      6 was old state      7
 New state      7 was old state      5
 New state      8 was old state      3
 New state      9 was old state     12
 New state     10 was old state     17
 New state     11 was old state      8
 New state     12 was old state     11
 New state     13 was old state     21
 New state     14 was old state     13
 New state     15 was old state     10
 New state     16 was old state     14
 New state     17 was old state     23
 New state     18 was old state     15
 New state     19 was old state     24
 New state     20 was old state     18
 New state     21 was old state     19
 New state     22 was old state     16
 New state     23 was old state     29
 New state     24 was old state     20
 New state     25 was old state     31
 New state     26 was old state     27
 New state     27 was old state     26
 New state     28 was old state     30
 New state     29 was old state     28
 New state     30 was old state     42
 New state     31 was old state     25
 New state     33 was old state     22
 New state     34 was old state     39
 New state     35 was old state     65
 New state     36 was old state     35
 New state     37 was old state     36
 New state     38 was old state     43
 New state     39 was old state     34
 New state     40 was old state     44
 New state     41 was old state     33
 New state     42 was old state     41
 New state     43 was old state     55
 New state     44 was old state     64
 New state     45 was old state     38
 New state     46 was old state     40
 New state     47 was old state     63
 New state     48 was old state     49
 New state     49 was old state     53
 New state     50 was old state     81
 Iteration     2 Dimension   300 NMult   200 NNew    100
 New state      3 was old state      8
 New state      4 was old state      3
 New state      5 was old state      4
 New state      7 was old state      5
 New state      8 was old state      7
 New state     10 was old state     15
 New state     11 was old state     10
 New state     12 was old state     11
 New state     13 was old state     12
 New state     14 was old state     13
 New state     15 was old state     14
 New state     16 was old state     17
 New state     17 was old state     16
 New state     20 was old state     21
 New state     21 was old state     22
 New state     22 was old state     20
 New state     23 was old state     25
 New state     24 was old state     23
 New state     25 was old state     24
 New state     33 was old state     34
 New state     34 was old state     33
 New state     36 was old state     37
 New state     37 was old state     36
 New state     41 was old state     42
 New state     42 was old state     41
 New state     46 was old state     48
 New state     47 was old state     49
 New state     48 was old state     46
 New state     49 was old state     47
 Iteration     3 Dimension   400 NMult   300 NNew    100
 Iteration     4 Dimension   496 NMult   400 NNew     96
 Iteration     5 Dimension   536 NMult   496 NNew     40
 Iteration     6 Dimension   540 NMult   536 NNew      4
 No map to state     50
 Iteration     7 Dimension   542 NMult   540 NNew      2
 Iteration     8 Dimension   544 NMult   542 NNew      2
 Iteration     9 Dimension   546 NMult   544 NNew      2
 Iteration    10 Dimension   548 NMult   546 NNew      2
 Iteration    11 Dimension   550 NMult   548 NNew      2
 ***********************************************************************
 Excited states from <AA,BB:AA,BB> singles matrix:
 ***********************************************************************
 
 Ground to excited state transition densities written to RWF  633
 Ground to excited state transition electric dipole moments (Au):
       state          X           Y           Z        Dip. S.      Osc.
         1        -3.6345     -0.6090     -0.0000     13.5807      1.4785
         2        -0.1451     -0.1977      0.0003      0.0602      0.0093
         3         0.2664     -0.1894      0.0005      0.1068      0.0172
         4         0.0001     -0.0000     -0.2399      0.0575      0.0097
         5         0.0003      0.0003      0.0293      0.0009      0.0001
         6         0.2676      0.2819      0.0000      0.1511      0.0261
         7        -0.0005     -0.0009      0.0200      0.0004      0.0001
         8        -0.0004     -0.0002      0.0313      0.0010      0.0002
         9        -0.0000      0.0000      0.0035      0.0000      0.0000
        10        -0.3240     -0.3938     -0.0002      0.2601      0.0492
        11         0.0018      0.0020     -0.0426      0.0018      0.0003
        12         0.0003      0.0003     -0.0105      0.0001      0.0000
        13         0.0002      0.0001      0.0071      0.0001      0.0000
        14         0.0003      0.0003     -0.0246      0.0006      0.0001
        15        -0.0000     -0.0001     -0.0219      0.0005      0.0001
        16        -0.0000     -0.0001      0.1196      0.0143      0.0030
        17        -0.0003      0.0003      0.0966      0.0093      0.0019
        18        -0.0010     -0.0012      0.0678      0.0046      0.0010
        19        -0.0003     -0.0006      0.0893      0.0080      0.0017
        20        -0.5775     -0.9790     -0.0002      1.2920      0.2797
        21        -0.4370     -0.0294      0.0004      0.1918      0.0423
        22        -0.0022     -0.0003     -0.0761      0.0058      0.0013
        23        -0.4531     -0.1227     -0.0007      0.2204      0.0494
        24        -0.0009     -0.0006      0.2065      0.0426      0.0096
        25         0.2571      0.0134      0.0002      0.0663      0.0150
        26         0.0010      0.0000     -0.1559      0.0243      0.0056
        27        -0.0000      0.0001      0.1368      0.0187      0.0043
        28         0.0007     -0.0029     -0.0231      0.0005      0.0001
        29         0.1827     -0.5391      0.0001      0.3241      0.0753
        30        -0.0039     -0.0001      0.0069      0.0001      0.0000
        31        -0.1651     -0.0402      0.0008      0.0289      0.0067
        32         0.0004      0.0008     -0.1175      0.0138      0.0033
        33         0.0002      0.0006     -0.0108      0.0001      0.0000
        34         0.0002      0.0006      0.0786      0.0062      0.0015
        35        -0.0001     -0.0000     -0.0745      0.0056      0.0013
        36         0.2450     -0.2043      0.0009      0.1018      0.0247
        37        -0.0011      0.0010      0.2187      0.0478      0.0116
        38        -0.0004      0.0005     -0.0808      0.0065      0.0016
        39        -0.0048      0.1413     -0.0009      0.0200      0.0050
        40         0.2513     -0.3303      0.0005      0.1723      0.0430
        41        -0.3859      0.4868     -0.0011      0.3859      0.0968
        42         0.0055     -0.0075     -0.0560      0.0032      0.0008
        43        -0.0195     -0.1234      0.0004      0.0156      0.0039
        44         0.0007     -0.0005     -0.3028      0.0917      0.0233
        45        -0.0006     -0.0019     -0.0485      0.0024      0.0006
        46        -0.0369     -0.1419      0.0075      0.0216      0.0055
        47         0.0017      0.0058      0.2347      0.0551      0.0141
        48        -0.0013     -0.0004     -0.2879      0.0829      0.0213
        49        -0.0010      0.0003      0.1579      0.0249      0.0064
        50         0.1818     -0.0845     -0.0009      0.0402      0.0104
 Ground to excited state transition velocity dipole moments (Au):
       state          X           Y           Z        Dip. S.      Osc.
         1         0.5884      0.0996      0.0000      0.3562      1.4541
         2         0.0318      0.0458     -0.0001      0.0031      0.0090
         3        -0.0643      0.0448     -0.0001      0.0061      0.0169
         4        -0.0000     -0.0000      0.0655      0.0043      0.0113
         5        -0.0001     -0.0001     -0.0065      0.0000      0.0001
         6        -0.0701     -0.0718      0.0000      0.0101      0.0259
         7         0.0001      0.0002     -0.0008      0.0000      0.0000
         8         0.0001      0.0000     -0.0083      0.0001      0.0002
         9         0.0000     -0.0000     -0.0005      0.0000      0.0000
        10         0.0905      0.1101      0.0001      0.0203      0.0477
        11        -0.0005     -0.0006      0.0139      0.0002      0.0005
        12        -0.0001     -0.0001      0.0099      0.0001      0.0002
        13        -0.0001     -0.0000     -0.0041      0.0000      0.0000
        14        -0.0001     -0.0001      0.0060      0.0000      0.0001
        15         0.0000      0.0000      0.0069      0.0000      0.0001
        16         0.0000      0.0000     -0.0373      0.0014      0.0030
        17         0.0001     -0.0001     -0.0291      0.0008      0.0018
        18         0.0003      0.0004     -0.0192      0.0004      0.0008
        19         0.0001      0.0002     -0.0272      0.0007      0.0015
        20         0.1845      0.3139      0.0001      0.1326      0.2722
        21         0.1431      0.0135     -0.0001      0.0207      0.0417
        22         0.0007      0.0001      0.0301      0.0009      0.0018
        23         0.1526      0.0421      0.0003      0.0250      0.0496
        24         0.0003      0.0002     -0.0720      0.0052      0.0102
        25        -0.0906     -0.0058     -0.0001      0.0082      0.0161
        26        -0.0003     -0.0000      0.0555      0.0031      0.0060
        27         0.0000     -0.0000     -0.0462      0.0021      0.0041
        28        -0.0002      0.0010      0.0065      0.0000      0.0001
        29        -0.0621      0.1848     -0.0000      0.0380      0.0727
        30         0.0015      0.0000      0.0026      0.0000      0.0000
        31         0.0618      0.0127     -0.0004      0.0040      0.0076
        32        -0.0001     -0.0003      0.0365      0.0013      0.0025
        33        -0.0001     -0.0002      0.0045      0.0000      0.0000
        34        -0.0001     -0.0002     -0.0141      0.0002      0.0004
        35         0.0000      0.0000      0.0251      0.0006      0.0012
        36        -0.0879      0.0729     -0.0003      0.0130      0.0239
        37         0.0004     -0.0003     -0.0771      0.0059      0.0109
        38         0.0001     -0.0002      0.0262      0.0007      0.0012
        39         0.0008     -0.0473      0.0003      0.0022      0.0040
        40        -0.0959      0.1247     -0.0002      0.0247      0.0441
        41         0.1403     -0.1744      0.0003      0.0501      0.0888
        42        -0.0020      0.0027      0.0157      0.0003      0.0005
        43         0.0089      0.0456     -0.0001      0.0022      0.0038
        44        -0.0002      0.0002      0.1040      0.0108      0.0189
        45         0.0002      0.0008      0.0209      0.0004      0.0008
        46         0.0096      0.0566     -0.0028      0.0033      0.0057
        47        -0.0005     -0.0023     -0.0861      0.0074      0.0129
        48         0.0005      0.0002      0.1074      0.0115      0.0199
        49         0.0004     -0.0001     -0.0556      0.0031      0.0053
        50        -0.0713      0.0347      0.0004      0.0063      0.0108
 Ground to excited state transition magnetic dipole moments (Au):
       state          X           Y           Z
         1        -0.0001     -0.0004      0.3666
         2         0.0000      0.0003     -0.2631
         3        -0.0002      0.0004     -1.1300
         4         0.4400     -0.1698     -0.0006
         5         0.1729      0.3427     -0.0000
         6        -0.0003     -0.0002     -0.0597
         7        -0.0216     -0.1488     -0.0000
         8         0.0044      0.6027      0.0004
         9        -0.0682     -0.1082      0.0005
        10        -0.0003     -0.0037     -0.0893
        11         0.0174     -0.6692      0.0004
        12         0.0600     -0.1275      0.0005
        13         0.4550     -0.4790      0.0005
        14        -1.7143     -0.0059      0.0004
        15         0.3980     -0.7626      0.0006
        16         0.0636      0.4452     -0.0002
        17        -0.2479      0.1066      0.0007
        18         0.2150      0.6416      0.0003
        19         0.0928      0.2402      0.0002
        20        -0.0003     -0.0015     -0.6119
        21        -0.0048      0.0006     -0.4522
        22         0.8378     -0.0830     -0.0034
        23         0.0006     -0.0007      0.8218
        24         0.1750     -0.3688      0.0001
        25        -0.0007     -0.0005     -0.1172
        26        -0.0460      0.0600     -0.0039
        27         0.0005      0.8567      0.0003
        28         0.0903     -1.4255     -0.0028
        29         0.0007      0.0063      0.7411
        30         0.7856     -0.5607     -0.0275
        31        -0.0181      0.0195     -1.1920
        32        -0.1613     -0.4979      0.0032
        33         0.4258     -0.1522      0.0002
        34         0.4633     -0.0492      0.0010
        35        -1.2219     -1.1645     -0.0002
        36         0.0004     -0.0022     -0.5200
        37        -0.1559     -0.2185      0.0022
        38         0.2810      0.3905      0.0003
        39        -0.0016     -0.0015      1.1307
        40         0.0003      0.0009      1.0718
        41        -0.0092     -0.0046     -1.0291
        42        -0.5656     -0.4697      0.0160
        43         0.0017      0.0003      0.1344
        44        -0.8743      0.1789     -0.0000
        45         0.4719     -0.5924      0.0027
        46        -0.0230      0.0875      0.1595
        47        -0.3883      2.0979     -0.0057
        48        -0.0745     -0.3458      0.0018
        49         0.1811      0.2378      0.0035
        50         0.0019     -0.0067     -0.5848
 Ground to excited state transition velocity quadrupole moments (Au):
       state          XX          YY          ZZ          XY          XZ          YZ
         1        -0.0790      0.0126      0.0115     -0.4367      0.0002      0.0001
         2        -3.0884      0.0043      0.0097     -0.5245     -0.0001     -0.0000
         3        -3.9253      0.0117     -0.0194     -0.9706     -0.0003     -0.0002
         4        -0.0011      0.0001     -0.0000     -0.0002      0.1964      0.2879
         5         0.0008      0.0000     -0.0000      0.0001     -0.1611      0.0436
         6        -0.0488     -0.0991      0.0161      0.0135     -0.0004     -0.0001
         7        -0.0018      0.0004     -0.0000     -0.0003      0.0785      0.0085
         8         0.0007      0.0003     -0.0005      0.0005     -0.5972     -0.0479
         9         0.0005     -0.0002      0.0002      0.0003     -0.0209     -0.0056
        10         0.3139      0.3796     -0.0015     -0.2359      0.0022      0.0003
        11        -0.0013     -0.0019     -0.0000      0.0011      0.3776      0.0586
        12        -0.0005      0.0000      0.0001      0.0006      0.0940     -0.0557
        13         0.0015     -0.0004      0.0004      0.0005      0.4019      0.1321
        14         0.0006     -0.0002      0.0000      0.0006     -0.0557     -0.3201
        15        -0.0010      0.0001     -0.0003      0.0002      0.3898      0.1724
        16         0.0002     -0.0000     -0.0002     -0.0002     -0.2261      0.0343
        17         0.0023      0.0000     -0.0003      0.0005     -0.0239     -0.0836
        18        -0.0014      0.0003      0.0003     -0.0001     -0.4653      0.1578
        19        -0.0006      0.0002      0.0000     -0.0003     -0.3680      0.1618
        20         0.2473      0.3105      0.0869     -0.5856      0.0012     -0.0005
        21        -2.3255     -0.0156     -0.2460     -0.8000     -0.0005     -0.0043
        22        -0.0138      0.0003     -0.0017     -0.0051      0.1245      0.7271
        23        -0.3798     -0.1073     -0.0026      0.7699      0.0010      0.0005
        24        -0.0014     -0.0003      0.0000     -0.0001      0.2867      0.0354
        25        -1.7342      0.0685     -0.1991     -0.2731     -0.0000     -0.0002
        26        -0.0089      0.0015     -0.0002     -0.0038      0.0902     -0.1549
        27         0.0056     -0.0008     -0.0003      0.0002     -0.6124     -0.0737
        28        -0.0164      0.0031      0.0007     -0.0007      1.2387      0.2687
        29        -1.8774      0.4275      0.0176      1.2996     -0.0058     -0.0004
        30        -0.0479      0.0058      0.0016     -0.0319      0.0603      0.2782
        31        -2.1929      0.2801      0.0638     -1.3286     -0.0074     -0.0073
        32         0.0067     -0.0009     -0.0000      0.0028      0.3699     -0.1193
        33         0.0007     -0.0002     -0.0001      0.0006      0.1008      0.1422
        34         0.0017     -0.0005      0.0001      0.0012      0.2058      0.2450
        35        -0.0005      0.0001      0.0000     -0.0007      0.2868     -0.2858
        36         1.6822      0.1548      0.0816      0.0315      0.0025     -0.0007
        37        -0.0022     -0.0011     -0.0004     -0.0006      0.3596     -0.2547
        38         0.0025     -0.0005     -0.0002     -0.0025     -0.2994      0.0717
        39         1.1342     -0.5030     -0.0340     -0.5127      0.0013     -0.0009
        40        -1.6752      0.1308      0.0791      0.7708     -0.0008      0.0003
        41         0.0837     -0.1745      0.1345     -1.2590     -0.0012     -0.0017
        42        -0.0004      0.0014     -0.0018      0.0199      0.0308     -0.0812
        43        -0.7420     -0.0226     -0.1110      0.6690      0.0001      0.0015
        44        -0.0049      0.0017     -0.0005      0.0026     -0.1025     -0.6695
        45         0.0011     -0.0017      0.0015      0.0016     -0.0806      0.0525
        46         0.0006     -0.1299      0.1195      0.1368     -0.0583     -0.0079
        47         0.0067      0.0027     -0.0040     -0.0058     -1.6056     -0.1166
        48        -0.0093      0.0023     -0.0005     -0.0009     -0.1093     -0.1208
        49        -0.0075      0.0018     -0.0010      0.0008     -0.1574      0.2377
        50         1.4777     -0.4584      0.1566     -0.0090      0.0030      0.0008
 <0|del|b> * <b|rxdel|0> + <0|del|b> * <b|delr+rdel|0>
 Rotatory Strengths (R) in cgs (10**-40 erg-esu-cm/Gauss)
       state          XX          YY          ZZ    R(velocity)    E-M Angle
         1        -0.1109      0.0543     -0.2530     -0.1032       90.00
         2         0.0958     -0.0253      0.0151      0.0285       90.00
         3         0.3979      0.0597      0.0056      0.1544       89.90
         4        -0.0745     -0.0566     -0.0052     -0.0454       90.00
         5        -0.0510     -0.0167     -0.0290     -0.0322       90.00
         6        -0.0166      0.0403      0.0681      0.0306       90.00
         7        -0.0751     -0.0028     -0.0291     -0.0357       90.00
         8         0.0693     -0.0060      0.0084      0.0239       90.00
         9         0.0005     -0.0011      0.0007      0.0000       90.00
        10        -0.8398      0.0107     -0.2660     -0.3651       91.98
        11         0.7597     -0.0591      0.2306      0.3104       87.69
        12         0.0355     -0.0006     -0.0075      0.0091       90.00
        13         0.0159     -0.0529     -0.0273     -0.0214       90.00
        14         0.0023      0.2132      0.1535      0.1230       89.13
        15        -0.0381      0.0135     -0.0100     -0.0115       90.00
        16         0.0487      0.0008      0.0114      0.0203       90.00
        17        -0.0540     -0.0439     -0.0266     -0.0415       90.00
        18         0.4546      0.1234      0.0933      0.2238       88.66
        19         0.1323      0.0138     -0.0356      0.0368       90.00
        20        -0.9996     -0.1601     -0.0361     -0.3986       90.14
        21         0.2071     -1.4471     -0.0794     -0.4398       90.54
        22        -0.2980      1.2566      0.0900      0.3495       88.89
        23         0.3675      0.1878      0.0214      0.1922       89.88
        24        -0.1321      0.0541      0.0296     -0.0161       90.00
        25         0.0395      0.0675      0.0494      0.0521       90.00
        26        -0.4382      0.0575     -0.0418     -0.1408       92.80
        27        -0.0614     -0.0083     -0.0061     -0.0253       90.00
        28        -2.6879     -0.0840     -0.1517     -0.9746       98.76
        29         2.2172     -0.0116      0.0275      0.7443       89.56
        30        -0.1675      1.5927      0.7469      0.7240       68.40
        31         1.3704     -1.6454     -0.5236     -0.2662       90.30
        32         0.4659      0.0568      0.0424      0.1884       89.15
        33         0.0551     -0.0490     -0.0131     -0.0023       90.00
        34         0.0179     -0.0359     -0.0424     -0.0201       90.00
        35        -0.0257     -0.0119     -0.0160     -0.0179       90.00
        36        -0.1759      0.2015     -0.0708     -0.0150       90.00
        37         0.0747     -0.3678     -0.0079     -0.1003       90.43
        38        -0.1848      0.1162      0.0097     -0.0196       90.00
        39         0.3089      0.4807      0.0101      0.2666       89.55
        40        -0.1208     -0.1043      0.0200     -0.0684       90.04
        41        -0.1601     -1.3582     -0.0332     -0.5172       90.21
        42        -0.7426      1.1669     -0.1989      0.0751       89.42
        43        -0.0948      0.0959      0.0204      0.0072       90.00
        44         0.2932      0.0934      0.0581      0.1482       89.85
        45        -0.2814      0.0984     -0.4192     -0.2008       91.18
        46         6.8408     -0.3333      1.3888      2.6321       66.03
        47        -6.8597      0.2255     -0.9061     -2.5134       91.28
        48         0.0525      0.1714     -0.0449      0.0597       90.00
        49        -0.2657      0.0181     -0.0298     -0.0925       90.52
        50        -0.4979     -0.3623     -0.1921     -0.3508       90.71
 1/2[<0|r|b>*<b|rxdel|0> + (<0|rxdel|b>*<b|r|0>)*]
 Rotatory Strengths (R) in cgs (10**-40 erg-esu-cm/Gauss)
       state          XX          YY          ZZ     R(length)
         1        -0.1708     -0.1508      0.0090     -0.1042
         2         0.0013      0.0362      0.0488      0.0287
         3         0.0298      0.0588      0.3739      0.1542
         4        -0.0376     -0.0004     -0.0989     -0.0456
         5        -0.0307     -0.0685      0.0010     -0.0327
         6         0.0536      0.0395      0.0013      0.0315
         7        -0.0081     -0.0975      0.0000     -0.0352
         8         0.0013      0.0851     -0.0086      0.0259
         9        -0.0021      0.0022     -0.0013     -0.0004
        10        -0.0688     -1.0273     -0.0137     -0.3699
        11        -0.0221      0.9512      0.0116      0.3136
        12        -0.0116      0.0273      0.0040      0.0066
        13        -0.0735      0.0215     -0.0025     -0.0181
        14         0.3784      0.0013      0.0075      0.1290
        15         0.0088     -0.0627      0.0085     -0.0151
        16         0.0020      0.0448      0.0143      0.0203
        17        -0.0516     -0.0216     -0.0500     -0.0410
        18         0.1475      0.5489     -0.0140      0.2275
        19         0.0215      0.1064     -0.0155      0.0375
        20        -0.1114     -1.0280     -0.0766     -0.4053
        21        -1.4876      0.0120      0.1120     -0.4545
        22         1.3081     -0.0165     -0.1807      0.3703
        23         0.1802     -0.0600      0.4258      0.1820
        24         0.1175     -0.1491     -0.0146     -0.0154
        25         0.1240      0.0047      0.0202      0.0497
        26         0.0337     -0.0021     -0.4336     -0.1340
        27         0.0000     -0.0550     -0.0333     -0.0294
        28        -0.0418     -2.9205     -0.0450     -1.0024
        29        -0.0920      2.3891     -0.0536      0.7478
        30         2.1882     -0.0516      0.1347      0.7571
        31        -2.1186      0.5530      0.7129     -0.2842
        32         0.0461      0.2874      0.2695      0.2010
        33        -0.0701      0.0614      0.0016     -0.0024
        34        -0.0544      0.0194     -0.0561     -0.0304
        35        -0.0450     -0.0020     -0.0125     -0.0198
        36        -0.0667     -0.3163      0.3370     -0.0153
        37        -0.1223      0.1526     -0.3338     -0.1012
        38         0.0697     -0.1507      0.0173     -0.0212
        39        -0.0057      0.1535      0.6915      0.2798
        40        -0.0468      0.2117     -0.3862     -0.0738
        41        -2.5028      1.5822     -0.7978     -0.5728
        42         2.2073     -2.4999      0.6334      0.1136
        43         0.0240      0.0280     -0.0416      0.0035
        44         0.4387      0.0624     -0.0067      0.1648
        45         0.1958     -0.8160      0.0941     -0.1753
        46        -0.6012      8.7802     -0.8443      2.4449
        47         0.4777     -8.5434      0.9411     -2.3749
        48        -0.0685     -0.1015      0.3566      0.0622
        49         0.1314     -0.0468     -0.3911     -0.1022
        50        -0.2483     -0.3983     -0.3759     -0.3408
  1/2[<0|del|b>*<b|r|0> + (<0|r|b>*<b|del|0>)*] (Au)
       state          X           Y           Z        Dip. S.   Osc.(frdel)
         1        -2.1387     -0.0607     -0.0000      2.1994      1.4662
         2        -0.0046     -0.0091     -0.0000      0.0137      0.0091
         3        -0.0171     -0.0085     -0.0000      0.0256      0.0171
         4        -0.0000      0.0000     -0.0157      0.0157      0.0105
         5        -0.0000     -0.0000     -0.0002      0.0002      0.0001
         6        -0.0188     -0.0202      0.0000      0.0390      0.0260
         7        -0.0000     -0.0000     -0.0000      0.0000      0.0000
         8        -0.0000     -0.0000     -0.0003      0.0003      0.0002
         9        -0.0000     -0.0000     -0.0000      0.0000      0.0000
        10        -0.0293     -0.0433     -0.0000      0.0727      0.0485
        11        -0.0000     -0.0000     -0.0006      0.0006      0.0004
        12        -0.0000     -0.0000     -0.0001      0.0001      0.0001
        13        -0.0000     -0.0000     -0.0000      0.0000      0.0000
        14        -0.0000     -0.0000     -0.0001      0.0001      0.0001
        15        -0.0000     -0.0000     -0.0002      0.0002      0.0001
        16        -0.0000     -0.0000     -0.0045      0.0045      0.0030
        17        -0.0000     -0.0000     -0.0028      0.0028      0.0019
        18        -0.0000     -0.0000     -0.0013      0.0013      0.0009
        19        -0.0000     -0.0000     -0.0024      0.0024      0.0016
        20        -0.1066     -0.3073     -0.0000      0.4138      0.2759
        21        -0.0625     -0.0004     -0.0000      0.0629      0.0420
        22        -0.0000     -0.0000     -0.0023      0.0023      0.0015
        23        -0.0691     -0.0052     -0.0000      0.0743      0.0495
        24        -0.0000     -0.0000     -0.0149      0.0149      0.0099
        25        -0.0233     -0.0001     -0.0000      0.0234      0.0156
        26        -0.0000     -0.0000     -0.0087      0.0087      0.0058
        27        -0.0000     -0.0000     -0.0063      0.0063      0.0042
        28        -0.0000     -0.0000     -0.0002      0.0002      0.0001
        29        -0.0113     -0.0996     -0.0000      0.1110      0.0740
        30        -0.0000     -0.0000      0.0000     -0.0000     -0.0000
        31        -0.0102     -0.0005     -0.0000      0.0107      0.0071
        32        -0.0000     -0.0000     -0.0043      0.0043      0.0029
        33        -0.0000     -0.0000     -0.0000      0.0000      0.0000
        34        -0.0000     -0.0000     -0.0011      0.0011      0.0007
        35        -0.0000     -0.0000     -0.0019      0.0019      0.0012
        36        -0.0215     -0.0149     -0.0000      0.0364      0.0243
        37        -0.0000     -0.0000     -0.0169      0.0169      0.0112
        38        -0.0000     -0.0000     -0.0021      0.0021      0.0014
        39        -0.0000     -0.0067     -0.0000      0.0067      0.0045
        40        -0.0241     -0.0412     -0.0000      0.0653      0.0435
        41        -0.0542     -0.0849     -0.0000      0.1391      0.0927
        42        -0.0000     -0.0000     -0.0009      0.0009      0.0006
        43        -0.0002     -0.0056     -0.0000      0.0058      0.0039
        44        -0.0000     -0.0000     -0.0315      0.0315      0.0210
        45        -0.0000     -0.0000     -0.0010      0.0010      0.0007
        46        -0.0004     -0.0080     -0.0000      0.0084      0.0056
        47        -0.0000     -0.0000     -0.0202      0.0202      0.0135
        48        -0.0000     -0.0000     -0.0309      0.0309      0.0206
        49        -0.0000     -0.0000     -0.0088      0.0088      0.0059
        50        -0.0130     -0.0029     -0.0000      0.0159      0.0106

 Excitation energies and oscillator strengths:
 
 Excited State   1:      Singlet-A      4.4437 eV  279.01 nm  f=1.4785  <S**2>=0.000
      38 -> 39         0.70239
 This state for optimization and/or second-order correction.
 Total Energy, E(TD-HF/TD-DFT) =  -390.521673726    
 Copying the excited state density for this state as the 1-particle RhoCI density.
 
 Excited State   2:      Singlet-A      6.2775 eV  197.51 nm  f=0.0093  <S**2>=0.000
      37 -> 39         0.68952
 
 Excited State   3:      Singlet-A      6.5901 eV  188.14 nm  f=0.0172  <S**2>=0.000
      38 -> 40         0.68756
 
 Excited State   4:      Singlet-A      6.8610 eV  180.71 nm  f=0.0097  <S**2>=0.000
      37 -> 42         0.14430
      38 -> 41         0.65837
      38 -> 42         0.10153
 
 Excited State   5:      Singlet-A      6.9602 eV  178.13 nm  f=0.0001  <S**2>=0.000
      32 -> 39         0.13057
      34 -> 40        -0.12531
      36 -> 39         0.65629
      38 -> 43         0.12805
 
 Excited State   6:      Singlet-A      7.0558 eV  175.72 nm  f=0.0261  <S**2>=0.000
      35 -> 39         0.20585
      38 -> 44         0.66264
 
 Excited State   7:      Singlet-A      7.0912 eV  174.84 nm  f=0.0001  <S**2>=0.000
      36 -> 39        -0.13365
      38 -> 42        -0.11027
      38 -> 43         0.61017
      38 -> 45        -0.24264
 
 Excited State   8:      Singlet-A      7.1731 eV  172.85 nm  f=0.0002  <S**2>=0.000
      37 -> 41         0.20870
      37 -> 43         0.10474
      38 -> 42         0.62115
      38 -> 47         0.10029
 
 Excited State   9:      Singlet-A      7.4642 eV  166.11 nm  f=0.0000  <S**2>=0.000
      34 -> 39         0.64432
      36 -> 40        -0.19976
 
 Excited State  10:      Singlet-A      7.7216 eV  160.57 nm  f=0.0492  <S**2>=0.000
      35 -> 39         0.64518
      37 -> 40         0.20429
      38 -> 44        -0.16604
 
 Excited State  11:      Singlet-A      7.7790 eV  159.38 nm  f=0.0003  <S**2>=0.000
      30 -> 39        -0.14723
      31 -> 39         0.11705
      31 -> 40         0.11235
      32 -> 39         0.27705
      33 -> 39         0.57305
 
 Excited State  12:      Singlet-A      7.9316 eV  156.32 nm  f=0.0000  <S**2>=0.000
      37 -> 42         0.17332
      37 -> 43         0.12851
      38 -> 43         0.19556
      38 -> 45         0.53643
      38 -> 46         0.15756
      38 -> 47         0.23313
 
 Excited State  13:      Singlet-A      8.0951 eV  153.16 nm  f=0.0000  <S**2>=0.000
      32 -> 39        -0.11603
      37 -> 41        -0.13332
      37 -> 43         0.16333
      37 -> 45        -0.12297
      38 -> 45        -0.20039
      38 -> 46         0.47603
      38 -> 47         0.19961
      38 -> 49        -0.23883
 
 Excited State  14:      Singlet-A      8.1060 eV  152.95 nm  f=0.0001  <S**2>=0.000
      30 -> 39        -0.28067
      32 -> 39         0.43809
      33 -> 39        -0.29597
      34 -> 40         0.20357
      38 -> 46         0.10068
      38 -> 47         0.11403
 
 Excited State  15:      Singlet-A      8.2762 eV  149.81 nm  f=0.0001  <S**2>=0.000
      37 -> 43        -0.11147
      37 -> 45        -0.10390
      38 -> 45        -0.13686
      38 -> 47         0.42395
      38 -> 48        -0.31371
      38 -> 49         0.32117
 
 Excited State  16:      Singlet-A      8.4777 eV  146.25 nm  f=0.0030  <S**2>=0.000
      31 -> 39         0.57935
      33 -> 40         0.23059
      36 -> 40        -0.11707
      38 -> 48        -0.14223
 
 Excited State  17:      Singlet-A      8.5263 eV  145.41 nm  f=0.0019  <S**2>=0.000
      31 -> 39         0.14321
      37 -> 46         0.18352
      38 -> 46        -0.15439
      38 -> 47         0.27112
      38 -> 48         0.51301
      38 -> 53        -0.15522
 
 Excited State  18:      Singlet-A      8.7182 eV  142.21 nm  f=0.0010  <S**2>=0.000
      30 -> 39        -0.17239
      37 -> 45         0.14773
      37 -> 47         0.15242
      38 -> 46         0.31648
      38 -> 47        -0.19074
      38 -> 49         0.47382
 
 Excited State  19:      Singlet-A      8.7422 eV  141.82 nm  f=0.0017  <S**2>=0.000
      30 -> 39         0.53087
      32 -> 39         0.30309
      32 -> 40        -0.12707
      33 -> 40         0.11185
      38 -> 49         0.15582
 
 Excited State  20:      Singlet-A      8.8357 eV  140.32 nm  f=0.2797  <S**2>=0.000
      35 -> 39        -0.15766
      35 -> 44        -0.14258
      37 -> 40         0.59567
      37 -> 44        -0.12619
      38 -> 44         0.11896
      38 -> 50        -0.18449
      38 -> 52         0.11888
 
 Excited State  21:      Singlet-A      8.9922 eV  137.88 nm  f=0.0423  <S**2>=0.000
      35 -> 40         0.10924
      37 -> 40         0.14709
      37 -> 44        -0.22686
      37 -> 50         0.12347
      38 -> 50         0.52737
      38 -> 52        -0.30949
 
 Excited State  22:      Singlet-A      9.0241 eV  137.39 nm  f=0.0013  <S**2>=0.000
      35 -> 42         0.10099
      37 -> 41         0.44589
      37 -> 42         0.25416
      37 -> 43        -0.13104
      37 -> 45        -0.15541
      37 -> 47         0.15067
      38 -> 42        -0.13615
      38 -> 46         0.15383
      38 -> 53        -0.20375
 
 Excited State  23:      Singlet-A      9.1521 eV  135.47 nm  f=0.0494  <S**2>=0.000
      35 -> 40        -0.22567
      37 -> 40         0.16276
      37 -> 44         0.50390
      37 -> 50         0.11677
      38 -> 50         0.28740
      38 -> 51        -0.10439
      38 -> 52         0.16604
 
 Excited State  24:      Singlet-A      9.1757 eV  135.12 nm  f=0.0096  <S**2>=0.000
      28 -> 39         0.59294
      28 -> 40         0.13383
      30 -> 40        -0.12048
      31 -> 39        -0.16300
      32 -> 40        -0.12784
      34 -> 39        -0.12188
      36 -> 40        -0.15504
 
 Excited State  25:      Singlet-A      9.2626 eV  133.86 nm  f=0.0150  <S**2>=0.000
      37 -> 51        -0.22783
      38 -> 51         0.64422
 
 Excited State  26:      Singlet-A      9.3456 eV  132.67 nm  f=0.0056  <S**2>=0.000
      37 -> 41         0.20277
      37 -> 49         0.23191
      38 -> 42        -0.12263
      38 -> 48         0.11672
      38 -> 53         0.49897
      38 -> 54         0.20419
      38 -> 55         0.13877
      38 -> 57         0.11155
 
 Excited State  27:      Singlet-A      9.4520 eV  131.17 nm  f=0.0043  <S**2>=0.000
      26 -> 39        -0.12011
      35 -> 42         0.10124
      37 -> 43         0.49211
      37 -> 45        -0.20661
      38 -> 46        -0.13155
      38 -> 54        -0.15915
      38 -> 55        -0.15312
      38 -> 62        -0.11358
 
 Excited State  28:      Singlet-A      9.4762 eV  130.84 nm  f=0.0001  <S**2>=0.000
      35 -> 41         0.11684
      37 -> 41        -0.22405
      37 -> 43         0.16872
      37 -> 46        -0.10858
      37 -> 48        -0.17787
      38 -> 53        -0.19231
      38 -> 54         0.42139
      38 -> 55         0.24779
 
 Excited State  29:      Singlet-A      9.4866 eV  130.69 nm  f=0.0753  <S**2>=0.000
      29 -> 39         0.64266
      29 -> 40        -0.23501
      38 -> 52         0.11872
 
 Excited State  30:      Singlet-A      9.5205 eV  130.23 nm  f=0.0000  <S**2>=0.000
      26 -> 39         0.50694
      28 -> 39        -0.10832
      30 -> 40        -0.12148
      31 -> 40         0.16554
      32 -> 39         0.12347
      34 -> 44        -0.15263
      36 -> 40        -0.20706
      37 -> 43         0.16023
 
 Excited State  31:      Singlet-A      9.5210 eV  130.22 nm  f=0.0067  <S**2>=0.000
      29 -> 39        -0.13269
      35 -> 40         0.16603
      37 -> 44        -0.22990
      37 -> 50         0.15393
      37 -> 52         0.13816
      38 -> 50         0.17570
      38 -> 52         0.54013
 
 Excited State  32:      Singlet-A      9.6678 eV  128.24 nm  f=0.0033  <S**2>=0.000
      37 -> 42        -0.20957
      37 -> 45        -0.10488
      37 -> 49         0.12900
      38 -> 54        -0.26162
      38 -> 55         0.45541
      38 -> 57        -0.14806
      38 -> 59        -0.13883
 
 Excited State  33:      Singlet-A      9.7064 eV  127.73 nm  f=0.0000  <S**2>=0.000
      26 -> 39         0.23784
      28 -> 39         0.14767
      30 -> 40        -0.13313
      32 -> 40         0.16360
      34 -> 39         0.15241
      34 -> 44         0.21089
      36 -> 40         0.49386
 
 Excited State  34:      Singlet-A      9.7199 eV  127.56 nm  f=0.0015  <S**2>=0.000
      35 -> 41         0.19707
      37 -> 41        -0.23777
      37 -> 42         0.39202
      37 -> 54         0.11952
      38 -> 41        -0.14799
      38 -> 53         0.17247
      38 -> 54        -0.22290
      38 -> 55         0.15010
      38 -> 57         0.10696
 
 Excited State  35:      Singlet-A      9.8014 eV  126.50 nm  f=0.0013  <S**2>=0.000
      23 -> 39         0.15499
      28 -> 40         0.14678
      30 -> 40         0.11057
      32 -> 39        -0.14188
      34 -> 40         0.35448
      36 -> 44         0.44144
      38 -> 54        -0.10524
 
 Excited State  36:      Singlet-A      9.9098 eV  125.11 nm  f=0.0247  <S**2>=0.000
      25 -> 39        -0.24630
      27 -> 39         0.61898
      27 -> 40         0.16992
 
 Excited State  37:      Singlet-A      9.9127 eV  125.08 nm  f=0.0116  <S**2>=0.000
      35 -> 41        -0.14728
      37 -> 42        -0.11005
      37 -> 54         0.17394
      37 -> 57         0.12370
      38 -> 53        -0.12655
      38 -> 55         0.10900
      38 -> 57         0.56509
 
 Excited State  38:      Singlet-A     10.0544 eV  123.31 nm  f=0.0016  <S**2>=0.000
      35 -> 41         0.11897
      35 -> 43        -0.21199
      37 -> 46        -0.20711
      37 -> 47        -0.14673
      37 -> 48        -0.16421
      38 -> 54        -0.19862
      38 -> 57         0.11752
      38 -> 58        -0.27331
      38 -> 59         0.33639
      38 -> 61        -0.10023
 
 Excited State  39:      Singlet-A     10.1353 eV  122.33 nm  f=0.0050  <S**2>=0.000
      34 -> 41         0.12807
      34 -> 42        -0.14629
      35 -> 40        -0.19058
      36 -> 41         0.27991
      36 -> 42        -0.11323
      37 -> 56        -0.15850
      38 -> 56         0.48192
 
 Excited State  40:      Singlet-A     10.1784 eV  121.81 nm  f=0.0430  <S**2>=0.000
      34 -> 41         0.11146
      34 -> 42        -0.23664
      35 -> 40         0.29146
      36 -> 41         0.41084
      36 -> 42        -0.10219
      37 -> 44         0.17014
      38 -> 56        -0.17382
      38 -> 60         0.13544
      38 -> 63         0.13388
 
 Excited State  41:      Singlet-A     10.2381 eV  121.10 nm  f=0.0968  <S**2>=0.000
      34 -> 42         0.13498
      35 -> 40         0.34716
      36 -> 41        -0.20472
      37 -> 44         0.22303
      37 -> 56        -0.14466
      38 -> 56         0.37725
      38 -> 60         0.16787
      38 -> 63         0.12228
 
 Excited State  42:      Singlet-A     10.2495 eV  120.97 nm  f=0.0008  <S**2>=0.000
      35 -> 41        -0.15703
      35 -> 42        -0.14814
      35 -> 43         0.21345
      37 -> 45        -0.18270
      37 -> 46         0.18350
      37 -> 49        -0.14946
      37 -> 53         0.22643
      38 -> 55         0.13040
      38 -> 59         0.33576
      38 -> 62         0.21121
      38 -> 64        -0.10641
 
 Excited State  43:      Singlet-A     10.2847 eV  120.55 nm  f=0.0039  <S**2>=0.000
      32 -> 42         0.12499
      33 -> 42        -0.10167
      34 -> 41         0.41180
      34 -> 42         0.19402
      34 -> 43         0.15098
      36 -> 41        -0.14273
      36 -> 42        -0.40416
 
 Excited State  44:      Singlet-A     10.3568 eV  119.71 nm  f=0.0233  <S**2>=0.000
      35 -> 41        -0.14673
      35 -> 43         0.19247
      37 -> 42         0.15945
      37 -> 43         0.11554
      37 -> 45         0.35843
      37 -> 55        -0.12585
      38 -> 42        -0.10521
      38 -> 55         0.12749
      38 -> 58        -0.27159
      38 -> 62        -0.16293
 
 Excited State  45:      Singlet-A     10.4120 eV  119.08 nm  f=0.0006  <S**2>=0.000
      22 -> 39        -0.25691
      23 -> 39         0.27055
      26 -> 39        -0.13774
      26 -> 40         0.15410
      28 -> 40         0.10015
      30 -> 40         0.10983
      31 -> 40         0.15777
      33 -> 44        -0.25686
      34 -> 40        -0.15523
      37 -> 45         0.20079
      37 -> 47        -0.12843
 
 Excited State  46:      Singlet-A     10.4260 eV  118.92 nm  f=0.0055  <S**2>=0.000
      25 -> 39        -0.29464
      35 -> 40        -0.31150
      37 -> 60         0.12534
      38 -> 60         0.45448
      38 -> 63         0.15367
 
 Excited State  47:      Singlet-A     10.4385 eV  118.78 nm  f=0.0141  <S**2>=0.000
      22 -> 39         0.18718
      26 -> 40        -0.10376
      33 -> 44         0.11759
      37 -> 43         0.13099
      37 -> 45         0.24177
      37 -> 47        -0.10104
      37 -> 55         0.12191
      38 -> 58         0.26618
      38 -> 62         0.38179
 
 Excited State  48:      Singlet-A     10.5028 eV  118.05 nm  f=0.0213  <S**2>=0.000
      37 -> 58        -0.15845
      38 -> 55        -0.12608
      38 -> 58        -0.36160
      38 -> 59        -0.28500
      38 -> 62         0.36533
 
 Excited State  49:      Singlet-A     10.5166 eV  117.89 nm  f=0.0064  <S**2>=0.000
      23 -> 39         0.15089
      33 -> 40         0.11167
      35 -> 45        -0.15283
      37 -> 42        -0.14549
      37 -> 45         0.14263
      37 -> 46         0.13588
      37 -> 47         0.37568
      37 -> 48        -0.12934
      37 -> 49         0.18496
      38 -> 48        -0.13095
      38 -> 49        -0.11248
      38 -> 59         0.12076
 
 Excited State  50:      Singlet-A     10.5241 eV  117.81 nm  f=0.0104  <S**2>=0.000
      25 -> 39         0.49590
      25 -> 40         0.14033
      27 -> 39         0.19850
      35 -> 44         0.12369
      37 -> 52         0.10200
      38 -> 60         0.16497
      38 -> 63         0.23573
 SavETr:  write IOETrn=   770 NScale= 10 NData=  16 NLR=1 NState=   50 LETran=     910.

 **********************************************************************

            Population analysis using the SCF Density.

 **********************************************************************

 Orbital symmetries:
       Occupied  (A) (A) (A) (A) (A) (A) (A) (A) (A) (A) (A) (A)
                 (A) (A) (A) (A) (A) (A) (A) (A) (A) (A) (A) (A)
                 (A) (A) (A) (A) (A) (A) (A) (A) (A) (A) (A) (A)
                 (A) (A)
       Virtual   (A) (A) (A) (A) (A) (A) (A) (A) (A) (A) (A) (A)
                 (A) (A) (A) (A) (A) (A) (A) (A) (A) (A) (A) (A)
                 (A) (A) (A) (A) (A) (A) (A) (A) (A) (A) (A) (A)
                 (A) (A) (A) (A) (A) (A) (A) (A) (A) (A) (A) (A)
                 (A) (A) (A) (A) (A) (A) (A) (A) (A) (A) (A) (A)
                 (A) (A) (A) (A) (A) (A) (A) (A) (A) (A) (A) (A)
                 (A) (A) (A) (A) (A) (A) (A) (A) (A) (A) (A) (A)
                 (A) (A) (A) (A) (A) (A) (A) (A) (A) (A) (A) (A)
                 (A) (A) (A) (A) (A) (A) (A) (A) (A) (A) (A) (A)
                 (A) (A) (A) (A) (A) (A) (A) (A) (A) (A) (A) (A)
                 (A) (A) (A) (A) (A) (A) (A) (A) (A) (A) (A) (A)
                 (A) (A) (A) (A) (A) (A) (A) (A) (A) (A) (A) (A)
                 (A) (A) (A) (A) (A) (A) (A) (A) (A) (A) (A) (A)
                 (A) (A) (A) (A) (A) (A) (A) (A) (A) (A) (A) (A)
                 (A) (A) (A) (A) (A) (A) (A) (A) (A) (A) (A) (A)
                 (A) (A) (A) (A) (A) (A) (A) (A) (A) (A) (A) (A)
                 (A) (A) (A) (A) (A) (A) (A) (A) (A) (A) (A) (A)
                 (A) (A) (A) (A) (A) (A) (A) (A) (A) (A) (A) (A)
                 (A) (A) (A) (A) (A) (A) (A) (A) (A) (A) (A) (A)
                 (A) (A) (A) (A) (A) (A) (A) (A) (A) (A) (A) (A)
                 (A) (A) (A) (A) (A) (A) (A) (A) (A) (A) (A) (A)
                 (A) (A) (A) (A) (A) (A) (A) (A) (A) (A) (A) (A)
                 (A) (A) (A) (A) (A) (A) (A) (A) (A) (A) (A) (A)
                 (A) (A) (A) (A) (A) (A) (A) (A) (A) (A) (A) (A)
                 (A) (A) (A) (A) (A) (A) (A) (A) (A) (A) (A) (A)
                 (A) (A) (A) (A) (A) (A) (A) (A) (A) (A) (A) (A)
                 (A) (A) (A) (A) (A) (A) (A) (A) (A) (A) (A) (A)
                 (A) (A) (A) (A) (A) (A) (A) (A) (A) (A) (A) (A)
                 (A) (A) (A) (A) (A) (A) (A) (A) (A) (A) (A) (A)
                 (A) (A) (A) (A) (A) (A) (A) (A) (A) (A) (A) (A)
                 (A) (A) (A) (A) (A) (A) (A) (A)
 The electronic state is 1-A.
 Alpha  occ. eigenvalues --  -10.29487 -10.29074 -10.28171 -10.28122 -10.28043
 Alpha  occ. eigenvalues --  -10.27391 -10.27101 -10.27013 -10.26939 -10.26893
 Alpha  occ. eigenvalues --   -0.92743  -0.90746  -0.85822  -0.81553  -0.78316
 Alpha  occ. eigenvalues --   -0.77545  -0.74423  -0.66075  -0.61709  -0.59716
 Alpha  occ. eigenvalues --   -0.56322  -0.54249  -0.52227  -0.51333  -0.50349
 Alpha  occ. eigenvalues --   -0.49512  -0.48040  -0.46141  -0.46041  -0.45299
 Alpha  occ. eigenvalues --   -0.44918  -0.44131  -0.43294  -0.41572  -0.40628
 Alpha  occ. eigenvalues --   -0.40282  -0.34261  -0.26617
 Alpha virt. eigenvalues --    0.02505   0.11300   0.12077   0.12927   0.14131
 Alpha virt. eigenvalues --    0.14848   0.15971   0.16944   0.17517   0.18416
 Alpha virt. eigenvalues --    0.18943   0.19793   0.20019   0.21299   0.21882
 Alpha virt. eigenvalues --    0.22210   0.23374   0.23662   0.23769   0.24645
 Alpha virt. eigenvalues --    0.25561   0.26415   0.26707   0.26911   0.27972
 Alpha virt. eigenvalues --    0.28796   0.30171   0.30375   0.31723   0.32312
 Alpha virt. eigenvalues --    0.32796   0.33384   0.34615   0.37164   0.37502
 Alpha virt. eigenvalues --    0.38021   0.38693   0.38769   0.39259   0.41643
 Alpha virt. eigenvalues --    0.42248   0.43694   0.43904   0.45201   0.45698
 Alpha virt. eigenvalues --    0.45944   0.46919   0.47547   0.48038   0.49748
 Alpha virt. eigenvalues --    0.50399   0.50834   0.51215   0.51912   0.52433
 Alpha virt. eigenvalues --    0.53406   0.54376   0.54971   0.55623   0.55795
 Alpha virt. eigenvalues --    0.56800   0.57105   0.57202   0.57380   0.58707
 Alpha virt. eigenvalues --    0.59429   0.60068   0.61528   0.63042   0.65430
 Alpha virt. eigenvalues --    0.67090   0.67150   0.68512   0.68780   0.69124
 Alpha virt. eigenvalues --    0.71486   0.72455   0.72679   0.73019   0.74803
 Alpha virt. eigenvalues --    0.75846   0.76002   0.76769   0.78023   0.79428
 Alpha virt. eigenvalues --    0.81186   0.82454   0.83565   0.84210   0.87920
 Alpha virt. eigenvalues --    0.87967   0.92010   0.92401   0.94002   0.96790
 Alpha virt. eigenvalues --    0.97019   1.00764   1.02064   1.02269   1.04334
 Alpha virt. eigenvalues --    1.04420   1.06726   1.06898   1.07443   1.07916
 Alpha virt. eigenvalues --    1.09627   1.12905   1.13197   1.15054   1.15194
 Alpha virt. eigenvalues --    1.17372   1.18741   1.20311   1.21461   1.23616
 Alpha virt. eigenvalues --    1.23823   1.26144   1.27730   1.30170   1.30849
 Alpha virt. eigenvalues --    1.31515   1.32992   1.34370   1.36252   1.40490
 Alpha virt. eigenvalues --    1.42228   1.42971   1.43810   1.44505   1.49470
 Alpha virt. eigenvalues --    1.51953   1.53361   1.55257   1.56765   1.58641
 Alpha virt. eigenvalues --    1.58995   1.60287   1.60933   1.61917   1.61946
 Alpha virt. eigenvalues --    1.62939   1.63224   1.63811   1.64353   1.66314
 Alpha virt. eigenvalues --    1.66684   1.66693   1.67587   1.67956   1.68099
 Alpha virt. eigenvalues --    1.68268   1.69072   1.71758   1.71844   1.74532
 Alpha virt. eigenvalues --    1.74989   1.76259   1.79362   1.83298   1.83361
 Alpha virt. eigenvalues --    1.84147   1.85656   1.87832   1.90186   1.91347
 Alpha virt. eigenvalues --    1.95047   1.98606   1.99919   2.00675   2.01597
 Alpha virt. eigenvalues --    2.03056   2.06250   2.06613   2.07850   2.09659
 Alpha virt. eigenvalues --    2.10325   2.10335   2.11913   2.15166   2.16048
 Alpha virt. eigenvalues --    2.17275   2.19896   2.21824   2.24294   2.26265
 Alpha virt. eigenvalues --    2.27766   2.27786   2.30909   2.31225   2.33963
 Alpha virt. eigenvalues --    2.36156   2.36688   2.38689   2.41151   2.42674
 Alpha virt. eigenvalues --    2.43292   2.44542   2.44686   2.45530   2.46419
 Alpha virt. eigenvalues --    2.46612   2.48816   2.50078   2.53019   2.53066
 Alpha virt. eigenvalues --    2.55994   2.57999   2.58160   2.60585   2.61182
 Alpha virt. eigenvalues --    2.61869   2.62766   2.64125   2.65441   2.66318
 Alpha virt. eigenvalues --    2.67486   2.67780   2.68563   2.69193   2.70236
 Alpha virt. eigenvalues --    2.72745   2.72816   2.78503   2.79464   2.80434
 Alpha virt. eigenvalues --    2.81454   2.83395   2.84110   2.85198   2.87601
 Alpha virt. eigenvalues --    2.88284   2.89104   2.91042   2.93178   2.95208
 Alpha virt. eigenvalues --    2.96770   2.96907   2.97218   2.99397   2.99600
 Alpha virt. eigenvalues --    3.03237   3.04120   3.04141   3.05943   3.08619
 Alpha virt. eigenvalues --    3.08636   3.09740   3.10953   3.12658   3.13160
 Alpha virt. eigenvalues --    3.13704   3.15226   3.18325   3.19341   3.19753
 Alpha virt. eigenvalues --    3.20326   3.21816   3.21883   3.22828   3.24318
 Alpha virt. eigenvalues --    3.25889   3.25930   3.26614   3.27556   3.30010
 Alpha virt. eigenvalues --    3.30789   3.32595   3.32945   3.34647   3.35605
 Alpha virt. eigenvalues --    3.37829   3.38470   3.38508   3.40248   3.41047
 Alpha virt. eigenvalues --    3.41781   3.41874   3.42897   3.43379   3.44071
 Alpha virt. eigenvalues --    3.44166   3.45283   3.46967   3.48695   3.52599
 Alpha virt. eigenvalues --    3.52815   3.54320   3.55277   3.58306   3.59454
 Alpha virt. eigenvalues --    3.63086   3.63974   3.64203   3.65986   3.68089
 Alpha virt. eigenvalues --    3.69046   3.73190   3.75214   3.75529   3.76624
 Alpha virt. eigenvalues --    3.77320   3.80974   3.83104   3.85642   3.86890
 Alpha virt. eigenvalues --    3.90417   3.90946   3.91047   3.95892   3.96719
 Alpha virt. eigenvalues --    3.99506   4.01502   4.04974   4.07694   4.07716
 Alpha virt. eigenvalues --    4.07869   4.11276   4.12752   4.14471   4.16904
 Alpha virt. eigenvalues --    4.21478   4.28143   4.32708   4.32803   4.33644
 Alpha virt. eigenvalues --    4.37508   4.39495   4.42415   4.45690   4.46305
 Alpha virt. eigenvalues --    4.47643   4.47966   4.49174   4.50616   4.54034
 Alpha virt. eigenvalues --    4.56492   4.57357   4.60238   4.63594   4.65681
 Alpha virt. eigenvalues --    4.71859   4.71878   4.74823   4.78807   4.80786
 Alpha virt. eigenvalues --    4.85131   4.96852   4.97530   5.01784   5.04591
 Alpha virt. eigenvalues --    5.12350   5.16163   5.19593   5.26608   5.34638
 Alpha virt. eigenvalues --    5.37717   5.57830   5.64119  22.35033  22.43084
 Alpha virt. eigenvalues --   22.49632  22.54406  22.59251  22.61475  22.77422
 Alpha virt. eigenvalues --   22.90422  23.13943  23.21970
          Condensed to atoms (all electrons):
               1          2          3          4          5          6
     1  C    4.943498   0.294818  -0.060456   0.012172  -0.000906   0.000051
     2  C    0.294818   5.061898   0.648034  -0.061044  -0.003223  -0.001757
     3  C   -0.060456   0.648034   5.155302   0.311592  -0.049990   0.001572
     4  C    0.012172  -0.061044   0.311592   4.998349   0.545471  -0.023483
     5  C   -0.000906  -0.003223  -0.049990   0.545471   5.203085   0.277881
     6  C    0.000051  -0.001757   0.001572  -0.023483   0.277881   5.138864
     7  C    0.000000   0.000056  -0.001453   0.001240  -0.122067   0.624352
     8  C    0.000000   0.000001   0.000079  -0.001375   0.013596  -0.005350
     9  C   -0.039590   0.280982  -0.060883  -0.005653   0.007161  -0.000399
    10  C    0.000000  -0.000023  -0.002230   0.023315  -0.078169   0.248148
    11  H    0.407527  -0.034477  -0.004067  -0.000640   0.000042  -0.000002
    12  H    0.407493  -0.034466  -0.004077  -0.000641   0.000042  -0.000002
    13  H    0.425611  -0.064320   0.009441   0.002218  -0.000153   0.000015
    14  H   -0.009413  -0.030669   0.411450  -0.044802   0.012771   0.000260
    15  H    0.000090   0.004876  -0.047963   0.398187  -0.005942  -0.014774
    16  H   -0.000065   0.002254  -0.000161  -0.042799   0.425007  -0.054009
    17  H    0.000000   0.000028  -0.000012   0.000473   0.003546  -0.065869
    18  H   -0.000000   0.000000   0.000010  -0.000168   0.002933   0.024953
    19  H   -0.000000  -0.000000  -0.000003   0.000067  -0.001051  -0.005973
    20  H   -0.000000  -0.000000  -0.000003   0.000067  -0.001052  -0.005874
    21  H    0.005261  -0.042838  -0.012981   0.000584   0.003716  -0.000284
    22  H   -0.002568  -0.039943   0.001545  -0.000849  -0.000223   0.000006
    23  H   -0.002573  -0.039992   0.001592  -0.000853  -0.000222   0.000006
    24  H    0.000001  -0.000136   0.000352   0.004481  -0.011194  -0.032751
    25  H   -0.000000   0.000007   0.000011  -0.001973   0.015314  -0.049815
    26  H    0.000001  -0.000137   0.000354   0.004498  -0.011227  -0.032708
               7          8          9         10         11         12
     1  C    0.000000   0.000000  -0.039590   0.000000   0.407527   0.407493
     2  C    0.000056   0.000001   0.280982  -0.000023  -0.034477  -0.034466
     3  C   -0.001453   0.000079  -0.060883  -0.002230  -0.004067  -0.004077
     4  C    0.001240  -0.001375  -0.005653   0.023315  -0.000640  -0.000641
     5  C   -0.122067   0.013596   0.007161  -0.078169   0.000042   0.000042
     6  C    0.624352  -0.005350  -0.000399   0.248148  -0.000002  -0.000002
     7  C    5.169522   0.228079   0.000025  -0.017723  -0.000000  -0.000000
     8  C    0.228079   4.922664   0.000001  -0.020466  -0.000000  -0.000000
     9  C    0.000025   0.000001   4.944152  -0.000154  -0.001823  -0.001793
    10  C   -0.017723  -0.020466  -0.000154   4.986218  -0.000000  -0.000000
    11  H   -0.000000  -0.000000  -0.001823  -0.000000   0.544891  -0.033554
    12  H   -0.000000  -0.000000  -0.001793  -0.000000  -0.033554   0.544917
    13  H   -0.000000   0.000000   0.005462   0.000000  -0.020161  -0.020162
    14  H    0.000054   0.000002   0.004673   0.000262   0.000225   0.000225
    15  H    0.001135  -0.000023  -0.000978   0.006445  -0.000013  -0.000013
    16  H    0.006201   0.000564   0.000096   0.004421   0.000000   0.000000
    17  H    0.422004  -0.021764   0.000000   0.004922  -0.000000  -0.000000
    18  H   -0.086357   0.442636   0.000000  -0.007143  -0.000000  -0.000000
    19  H   -0.029633   0.406615  -0.000000   0.000888   0.000000  -0.000000
    20  H   -0.029753   0.406705  -0.000000   0.000885  -0.000000   0.000000
    21  H    0.000013   0.000000   0.428549   0.000103   0.000004   0.000004
    22  H   -0.000001  -0.000000   0.409872  -0.000001  -0.001046   0.003841
    23  H   -0.000001  -0.000000   0.409907  -0.000001   0.003843  -0.001050
    24  H   -0.004449   0.000708   0.000030   0.416718   0.000000  -0.000000
    25  H   -0.007659  -0.001380   0.000002   0.420947  -0.000000  -0.000000
    26  H   -0.004477   0.000711   0.000030   0.416696  -0.000000   0.000000
              13         14         15         16         17         18
     1  C    0.425611  -0.009413   0.000090  -0.000065   0.000000  -0.000000
     2  C   -0.064320  -0.030669   0.004876   0.002254   0.000028   0.000000
     3  C    0.009441   0.411450  -0.047963  -0.000161  -0.000012   0.000010
     4  C    0.002218  -0.044802   0.398187  -0.042799   0.000473  -0.000168
     5  C   -0.000153   0.012771  -0.005942   0.425007   0.003546   0.002933
     6  C    0.000015   0.000260  -0.014774  -0.054009  -0.065869   0.024953
     7  C   -0.000000   0.000054   0.001135   0.006201   0.422004  -0.086357
     8  C    0.000000   0.000002  -0.000023   0.000564  -0.021764   0.442636
     9  C    0.005462   0.004673  -0.000978   0.000096   0.000000   0.000000
    10  C    0.000000   0.000262   0.006445   0.004421   0.004922  -0.007143
    11  H   -0.020161   0.000225  -0.000013   0.000000  -0.000000  -0.000000
    12  H   -0.020162   0.000225  -0.000013   0.000000  -0.000000  -0.000000
    13  H    0.521841   0.002922   0.000033   0.000015   0.000000   0.000000
    14  H    0.002922   0.498738   0.002787   0.005576   0.000024  -0.000000
    15  H    0.000033   0.002787   0.487864   0.004142   0.000069  -0.000007
    16  H    0.000015   0.005576   0.004142   0.494970   0.005804   0.000053
    17  H    0.000000   0.000024   0.000069   0.005804   0.502808   0.002963
    18  H    0.000000  -0.000000  -0.000007   0.000053   0.002963   0.526819
    19  H   -0.000000  -0.000000   0.000001  -0.000053  -0.001627  -0.021634
    20  H   -0.000000  -0.000000   0.000001  -0.000052  -0.001656  -0.021657
    21  H   -0.000190   0.000019   0.003177   0.000015  -0.000000  -0.000000
    22  H   -0.000028  -0.000136  -0.000104  -0.000002  -0.000000  -0.000000
    23  H   -0.000027  -0.000135  -0.000103  -0.000002  -0.000000  -0.000000
    24  H   -0.000000  -0.000014  -0.002676  -0.000142  -0.000201  -0.000161
    25  H    0.000000   0.000001   0.000561  -0.000024   0.000221   0.006849
    26  H   -0.000000  -0.000014  -0.002676  -0.000142  -0.000202  -0.000162
              19         20         21         22         23         24
     1  C   -0.000000  -0.000000   0.005261  -0.002568  -0.002573   0.000001
     2  C   -0.000000  -0.000000  -0.042838  -0.039943  -0.039992  -0.000136
     3  C   -0.000003  -0.000003  -0.012981   0.001545   0.001592   0.000352
     4  C    0.000067   0.000067   0.000584  -0.000849  -0.000853   0.004481
     5  C   -0.001051  -0.001052   0.003716  -0.000223  -0.000222  -0.011194
     6  C   -0.005973  -0.005874  -0.000284   0.000006   0.000006  -0.032751
     7  C   -0.029633  -0.029753   0.000013  -0.000001  -0.000001  -0.004449
     8  C    0.406615   0.406705   0.000000  -0.000000  -0.000000   0.000708
     9  C   -0.000000  -0.000000   0.428549   0.409872   0.409907   0.000030
    10  C    0.000888   0.000885   0.000103  -0.000001  -0.000001   0.416718
    11  H    0.000000  -0.000000   0.000004  -0.001046   0.003843   0.000000
    12  H   -0.000000   0.000000   0.000004   0.003841  -0.001050  -0.000000
    13  H   -0.000000  -0.000000  -0.000190  -0.000028  -0.000027  -0.000000
    14  H   -0.000000  -0.000000   0.000019  -0.000136  -0.000135  -0.000014
    15  H    0.000001   0.000001   0.003177  -0.000104  -0.000103  -0.002676
    16  H   -0.000053  -0.000052   0.000015  -0.000002  -0.000002  -0.000142
    17  H   -0.001627  -0.001656  -0.000000  -0.000000  -0.000000  -0.000201
    18  H   -0.021634  -0.021657  -0.000000  -0.000000  -0.000000  -0.000161
    19  H    0.538919  -0.029405  -0.000000  -0.000000   0.000000   0.000275
    20  H   -0.029405   0.538916  -0.000000   0.000000  -0.000000  -0.000153
    21  H   -0.000000  -0.000000   0.521922  -0.020689  -0.020702   0.000082
    22  H   -0.000000   0.000000  -0.020689   0.539244  -0.031352  -0.000004
    23  H    0.000000  -0.000000  -0.020702  -0.031352   0.539252   0.000008
    24  H    0.000275  -0.000153   0.000082  -0.000004   0.000008   0.535544
    25  H   -0.000139  -0.000135  -0.000004  -0.000000  -0.000000  -0.019150
    26  H   -0.000153   0.000274   0.000082   0.000008  -0.000004  -0.033842
              25         26
     1  C   -0.000000   0.000001
     2  C    0.000007  -0.000137
     3  C    0.000011   0.000354
     4  C   -0.001973   0.004498
     5  C    0.015314  -0.011227
     6  C   -0.049815  -0.032708
     7  C   -0.007659  -0.004477
     8  C   -0.001380   0.000711
     9  C    0.000002   0.000030
    10  C    0.420947   0.416696
    11  H   -0.000000  -0.000000
    12  H   -0.000000   0.000000
    13  H    0.000000  -0.000000
    14  H    0.000001  -0.000014
    15  H    0.000561  -0.002676
    16  H   -0.000024  -0.000142
    17  H    0.000221  -0.000202
    18  H    0.006849  -0.000162
    19  H   -0.000139  -0.000153
    20  H   -0.000135   0.000274
    21  H   -0.000004   0.000082
    22  H   -0.000000   0.000008
    23  H   -0.000000  -0.000004
    24  H   -0.019150  -0.033842
    25  H    0.518170  -0.019147
    26  H   -0.019147   0.535574
 Mulliken charges:
               1
     1  C   -0.380952
     2  C    0.060071
     3  C   -0.297056
     4  C   -0.118432
     5  C   -0.225150
     6  C   -0.023062
     7  C   -0.149109
     8  C   -0.372002
     9  C   -0.379670
    10  C   -0.404056
    11  H    0.139251
    12  H    0.139237
    13  H    0.137483
    14  H    0.145194
    15  H    0.165904
    16  H    0.148333
    17  H    0.148469
    18  H    0.130075
    19  H    0.142907
    20  H    0.142893
    21  H    0.134157
    22  H    0.142429
    23  H    0.142409
    24  H    0.146674
    25  H    0.137344
    26  H    0.146662
 Sum of Mulliken charges =  -0.00000
 Mulliken charges with hydrogens summed into heavy atoms:
               1
     1  C    0.035018
     2  C    0.060071
     3  C   -0.151861
     4  C    0.047472
     5  C   -0.076818
     6  C   -0.023062
     7  C   -0.000640
     8  C    0.043873
     9  C    0.039324
    10  C    0.026624
 Electronic spatial extent (au):  <R**2>=           2878.3062
 Charge=             -0.0000 electrons
 Dipole moment (field-independent basis, Debye):
    X=              0.1801    Y=              0.5875    Z=              0.0002  Tot=              0.6145
 Quadrupole moment (field-independent basis, Debye-Ang):
   XX=            -51.6800   YY=            -58.8676   ZZ=            -67.4666
   XY=              1.1314   XZ=              0.0013   YZ=              0.0002
 Traceless Quadrupole moment (field-independent basis, Debye-Ang):
   XX=              7.6581   YY=              0.4704   ZZ=             -8.1285
   XY=              1.1314   XZ=              0.0013   YZ=              0.0002
 Octapole moment (field-independent basis, Debye-Ang**2):
  XXX=             -0.0822  YYY=             -3.4880  ZZZ=              0.0013  XYY=             -2.1995
  XXY=              0.6208  XXZ=              0.0040  XZZ=              2.5205  YZZ=              3.2226
  YYZ=              0.0014  XYZ=              0.0041
 Hexadecapole moment (field-independent basis, Debye-Ang**3):
 XXXX=          -3191.4450 YYYY=           -438.9445 ZZZZ=           -104.6371 XXXY=             25.7324
 XXXZ=             -0.0043 YYYX=             -1.0679 YYYZ=              0.0012 ZZZX=              0.0238
 ZZZY=              0.0001 XXYY=           -626.1424 XXZZ=           -588.7410 YYZZ=            -93.5561
 XXYZ=             -0.0124 YYXZ=             -0.0163 ZZXY=              5.9168
 N-N= 4.785845839701D+02 E-N=-1.861967876259D+03  KE= 3.882968375283D+02
 Unable to Open any file for archive entry.
 1\1\GINC-CN04\SP\RwB97XD TD-FC\def2TZVP\C10H16\2100011873\04-Nov-2023\
 0\\# td=(nstates=50) wB97XD/def2TZVP scrf(smd, solvent=ethanol)\\B-2\\
 0,1\C,0,4.186043,-0.985243,-0.000113\C,0,2.965678,-0.099955,0.000017\C
 ,0,1.724259,-0.63647,-0.000213\C,0,0.452578,0.059668,-0.000179\C,0,-0.
 741079,-0.579413,-0.000205\C,0,-2.064372,0.040415,-0.000137\C,0,-3.152
 878,-0.763225,0.000253\C,0,-4.604173,-0.385851,0.000427\C,0,3.260391,1
 .378273,0.000567\C,0,-2.133175,1.550261,-0.000541\H,0,4.817179,-0.7912
 17,-0.879673\H,0,4.817098,-0.791647,0.879598\H,0,3.922096,-2.047445,-0
 .000374\H,0,1.652379,-1.72528,-0.000493\H,0,0.469127,1.146468,-0.00011
 3\H,0,-0.735417,-1.670538,-0.000304\H,0,-2.968126,-1.838635,0.00044\H,
 0,-4.773466,0.693748,0.001475\H,0,-5.114894,-0.80271,-0.879231\H,0,-5.
 115042,-0.80447,0.879137\H,0,2.363003,2.000757,0.000075\H,0,3.859006,1
 .653716,0.880554\H,0,3.86032,1.65418,-0.878355\H,0,-1.627265,1.964044,
 -0.882102\H,0,-3.158688,1.923675,-0.000452\H,0,-1.626926,1.964596,0.88
 0567\\Version=ES64L-G16RevC.02\State=1-A\HF=-390.6849756\RMSD=4.889e-0
 9\PG=C01 [X(C10H16)]\\@
 The archive entry for this job was punched.


 LENDING MONEY TO FRIENDS CAUSES THEM TO LOSE THEIR MEMORIES.

    --  PETER'S THEORY OF RECIPROCAL INHIBITION OF FISCAL RECALL
 Job cpu time:       0 days  4 hours 47 minutes  3.5 seconds.
 Elapsed time:       0 days  0 hours  9 minutes 35.9 seconds.
 File lengths (MBytes):  RWF=   3120 Int=      0 D2E=      0 Chk=    256 Scr=     32
 Normal termination of Gaussian 16 at Sat Nov  4 18:38:12 2023.
