 Entering Gaussian System, Link 0=g16
 Initial command:
 /nfs-share/home/2100011873/Gaussian16_AVX2/g16/l1.exe "/nfs-share/home/2100011873/GaussTmp/Gau-258973.inp" -scrdir="/nfs-share/home/2100011873/GaussTmp/"
 Entering Link 1 = /nfs-share/home/2100011873/Gaussian16_AVX2/g16/l1.exe PID=    258974.
  
 Copyright (c) 1988-2021, Gaussian, Inc.  All Rights Reserved.
  
 This is part of the Gaussian(R) 16 program.  It is based on
 the Gaussian(R) 09 system (copyright 2009, Gaussian, Inc.),
 the Gaussian(R) 03 system (copyright 2003, Gaussian, Inc.),
 the Gaussian(R) 98 system (copyright 1998, Gaussian, Inc.),
 the Gaussian(R) 94 system (copyright 1995, Gaussian, Inc.),
 the Gaussian 92(TM) system (copyright 1992, Gaussian, Inc.),
 the Gaussian 90(TM) system (copyright 1990, Gaussian, Inc.),
 the Gaussian 88(TM) system (copyright 1988, Gaussian, Inc.),
 the Gaussian 86(TM) system (copyright 1986, Carnegie Mellon
 University), and the Gaussian 82(TM) system (copyright 1983,
 Carnegie Mellon University). Gaussian is a federally registered
 trademark of Gaussian, Inc.
  
 This software contains proprietary and confidential information,
 including trade secrets, belonging to Gaussian, Inc.
  
 This software is provided under written license and may be
 used, copied, transmitted, or stored only in accord with that
 written license.
  
 The following legend is applicable only to US Government
 contracts under FAR:
  
                    RESTRICTED RIGHTS LEGEND
  
 Use, reproduction and disclosure by the US Government is
 subject to restrictions as set forth in subparagraphs (a)
 and (c) of the Commercial Computer Software - Restricted
 Rights clause in FAR 52.227-19.
  
 Gaussian, Inc.
 340 Quinnipiac St., Bldg. 40, Wallingford CT 06492
  
  
 ---------------------------------------------------------------
 Warning -- This program may not be used in any manner that
 competes with the business of Gaussian, Inc. or will provide
 assistance to any competitor of Gaussian, Inc.  The licensee
 of this program is prohibited from giving any competitor of
 Gaussian, Inc. access to this program.  By using this program,
 the user acknowledges that Gaussian, Inc. is engaged in the
 business of creating and licensing software in the field of
 computational chemistry and represents and warrants to the
 licensee that it is not a competitor of Gaussian, Inc. and that
 it will not use this program in any manner prohibited above.
 ---------------------------------------------------------------
  

 Cite this work as:
 Gaussian 16, Revision C.02,
 M. J. Frisch, G. W. Trucks, H. B. Schlegel, G. E. Scuseria, 
 M. A. Robb, J. R. Cheeseman, G. Scalmani, V. Barone, 
 G. A. Petersson, H. Nakatsuji, X. Li, M. Caricato, A. V. Marenich, 
 J. Bloino, B. G. Janesko, R. Gomperts, B. Mennucci, H. P. Hratchian, 
 J. V. Ortiz, A. F. Izmaylov, J. L. Sonnenberg, D. Williams-Young, 
 F. Ding, F. Lipparini, F. Egidi, J. Goings, B. Peng, A. Petrone, 
 T. Henderson, D. Ranasinghe, V. G. Zakrzewski, J. Gao, N. Rega, 
 G. Zheng, W. Liang, M. Hada, M. Ehara, K. Toyota, R. Fukuda, 
 J. Hasegawa, M. Ishida, T. Nakajima, Y. Honda, O. Kitao, H. Nakai, 
 T. Vreven, K. Throssell, J. A. Montgomery, Jr., J. E. Peralta, 
 F. Ogliaro, M. J. Bearpark, J. J. Heyd, E. N. Brothers, K. N. Kudin, 
 V. N. Staroverov, T. A. Keith, R. Kobayashi, J. Normand, 
 K. Raghavachari, A. P. Rendell, J. C. Burant, S. S. Iyengar, 
 J. Tomasi, M. Cossi, J. M. Millam, M. Klene, C. Adamo, R. Cammi, 
 J. W. Ochterski, R. L. Martin, K. Morokuma, O. Farkas, 
 J. B. Foresman, and D. J. Fox, Gaussian, Inc., Wallingford CT, 2019.
 
 ******************************************
 Gaussian 16:  ES64L-G16RevC.02  7-Dec-2021
                 3-Nov-2023 
 ******************************************
 %nprocshared=32
 Will use up to   32 processors via shared memory.
 %mem=128GB
 -------------------------------------------------------------
 # td=(nstates=150) wB97XD/def2TZVP scrf(smd, solvent=ethanol)
 -------------------------------------------------------------
 1/38=1,172=1/1;
 2/12=2,17=6,18=5,40=1/2;
 3/5=44,7=101,11=9,25=1,30=1,70=32201,72=4,74=-58/1,2,3,8;
 4//1;
 5/5=2,38=5,53=4/2;
 8/6=1,10=1,108=150/1;
 9/41=150,42=1,70=2/14;
 6/7=2,8=2,9=2,10=2/1;
 99/5=1,9=1/99;
 ---
 A-2
 ---
 Symbolic Z-matrix:
 Charge =  1 Multiplicity = 1
 C                     1.18593   1.12419   0.25907 
 C                    -0.06404   0.51889   0.18474 
 C                    -1.25506   1.23243   0.20607 
 C                    -2.57691   0.77597   0.13437 
 C                     2.39263   0.43147   0.17128 
 S                    -3.82767   1.97001  -0.18708 
 C                    -5.07788   0.74479  -0.13478 
 C                    -4.5092   -0.50864   0.11385 
 N                    -3.11837  -0.45818   0.27972 
 S                     2.5052   -1.30012  -0.12511 
 C                     4.26032  -1.22576  -0.10255 
 C                     4.68878   0.08701   0.11942 
 N                     3.62751   0.98166   0.28741 
 C                     5.15932  -2.26746  -0.2795 
 C                     6.51791  -1.9736   -0.23726 
 C                     6.95394  -0.66384  -0.02533 
 C                     6.05157   0.37821   0.15346 
 C                    -6.4468    0.90418  -0.30422 
 C                    -7.25123  -0.22611  -0.22641 
 C                    -6.68975  -1.48249   0.01487 
 C                    -5.32005  -1.6405    0.18625 
 C                     3.84714   2.41567   0.55458 
 C                     3.91176   3.24964  -0.71763 
 C                    -2.36937  -1.66031   0.69242 
 C                    -1.91885  -2.52299  -0.47911 
 H                     1.22885   2.1992    0.37656 
 H                    -0.09664  -0.55695   0.07224 
 H                    -1.16519   2.31437   0.2242 
 H                     4.81396  -3.27995  -0.44835 
 H                     7.24042  -2.76872  -0.37396 
 H                     8.01554  -0.44971  -0.00207 
 H                     6.40682   1.38809   0.30607 
 H                    -6.87574   1.88074  -0.49123 
 H                    -8.32188  -0.12916  -0.35743 
 H                    -7.33033  -2.35428   0.06736 
 H                    -4.90197  -2.62169   0.36374 
 H                     3.04859   2.7543    1.21217 
 H                     4.77271   2.49485   1.12204 
 H                     4.08254   4.2955   -0.45252 
 H                     4.72891   2.92447  -1.36454 
 H                     2.9782    3.18722  -1.27998 
 H                    -1.53167  -1.32932   1.3026 
 H                    -3.02767  -2.2247    1.35177 
 H                    -1.2761   -1.97256  -1.16835 
 H                    -1.35915  -3.37917  -0.09602 
 H                    -2.77567  -2.8996   -1.0408 
 
                          Input orientation:                          
 ---------------------------------------------------------------------
 Center     Atomic      Atomic             Coordinates (Angstroms)
 Number     Number       Type             X           Y           Z
 ---------------------------------------------------------------------
      1          6           0        1.185932    1.124188    0.259065
      2          6           0       -0.064042    0.518894    0.184736
      3          6           0       -1.255062    1.232433    0.206071
      4          6           0       -2.576908    0.775971    0.134368
      5          6           0        2.392634    0.431471    0.171283
      6         16           0       -3.827667    1.970009   -0.187075
      7          6           0       -5.077877    0.744792   -0.134775
      8          6           0       -4.509195   -0.508640    0.113846
      9          7           0       -3.118372   -0.458179    0.279721
     10         16           0        2.505198   -1.300121   -0.125106
     11          6           0        4.260315   -1.225762   -0.102553
     12          6           0        4.688784    0.087010    0.119416
     13          7           0        3.627512    0.981655    0.287411
     14          6           0        5.159317   -2.267461   -0.279503
     15          6           0        6.517913   -1.973596   -0.237257
     16          6           0        6.953940   -0.663841   -0.025333
     17          6           0        6.051566    0.378213    0.153458
     18          6           0       -6.446804    0.904176   -0.304215
     19          6           0       -7.251229   -0.226106   -0.226408
     20          6           0       -6.689747   -1.482485    0.014868
     21          6           0       -5.320051   -1.640504    0.186250
     22          6           0        3.847144    2.415669    0.554580
     23          6           0        3.911762    3.249637   -0.717632
     24          6           0       -2.369369   -1.660308    0.692423
     25          6           0       -1.918854   -2.522991   -0.479110
     26          1           0        1.228852    2.199196    0.376562
     27          1           0       -0.096636   -0.556945    0.072235
     28          1           0       -1.165193    2.314370    0.224199
     29          1           0        4.813961   -3.279951   -0.448352
     30          1           0        7.240415   -2.768718   -0.373960
     31          1           0        8.015538   -0.449707   -0.002068
     32          1           0        6.406822    1.388085    0.306065
     33          1           0       -6.875736    1.880738   -0.491225
     34          1           0       -8.321880   -0.129159   -0.357431
     35          1           0       -7.330326   -2.354283    0.067360
     36          1           0       -4.901973   -2.621689    0.363736
     37          1           0        3.048585    2.754296    1.212168
     38          1           0        4.772710    2.494849    1.122044
     39          1           0        4.082538    4.295496   -0.452515
     40          1           0        4.728911    2.924468   -1.364544
     41          1           0        2.978199    3.187215   -1.279982
     42          1           0       -1.531667   -1.329317    1.302601
     43          1           0       -3.027666   -2.224702    1.351768
     44          1           0       -1.276100   -1.972556   -1.168349
     45          1           0       -1.359149   -3.379171   -0.096017
     46          1           0       -2.775672   -2.899604   -1.040801
 ---------------------------------------------------------------------
                    Distance matrix (angstroms):
                    1          2          3          4          5
     1  C    0.000000
     2  C    1.390806   0.000000
     3  C    2.443967   1.388568   0.000000
     4  C    3.780975   2.526484   1.400277   0.000000
     5  C    1.394164   2.458268   3.734761   4.981605   0.000000
     6  S    5.103982   4.050784   2.704973   1.758821   6.417762
     7  C    6.287635   5.029081   3.868835   2.515603   7.483340
     8  C    5.926355   4.562920   3.691778   2.320427   6.965799
     9  N    4.585994   3.208212   2.517045   1.355521   5.583406
    10  S    2.786633   3.163196   4.545664   5.495934   1.760377
    11  C    3.886498   4.671876   6.046268   7.128161   2.511900
    12  C    3.655846   4.772855   6.053826   7.298299   2.322423
    13  N    2.445901   3.721863   4.889687   6.209715   1.356876
    14  C    5.251774   5.938246   7.323203   8.323638   3.891269
    15  C    6.186487   7.050725   8.419875   9.508627   4.792617
    16  C    6.045481   7.120047   8.428352   9.640313   4.695091
    17  C    4.923619   6.117306   7.356580   8.637658   3.659363
    18  C    7.656654   6.413047   5.227077   3.896779   8.864830
    19  C    8.558310   7.237384   6.186145   4.794121   9.674433
    20  C    8.299440   6.923463   6.078087   4.693650   9.283175
    21  C    7.069416   5.682309   4.977780   3.656074   7.986164
    22  C    2.972760   4.362558   5.249192   6.643315   2.489891
    23  C    3.591882   4.906959   5.623025   6.996268   3.322646
    24  C    4.536671   3.212662   3.137861   2.507978   5.227217
    25  C    4.846289   3.624098   3.874700   3.419436   5.266952
    26  H    1.082261   2.128799   2.670866   4.070385   2.126354
    27  H    2.122756   1.082196   2.135822   2.816429   2.680157
    28  H    2.635439   2.106615   1.085814   2.089900   4.025698
    29  H    5.749737   6.215057   7.590976   8.450740   4.474531
    30  H    7.225801   8.029672   9.408442  10.450026   5.834336
    31  H    7.013477   8.139576   9.424274  10.663996   5.694170
    32  H    5.227767   6.530107   7.664117   9.006196   4.128799
    33  H    8.131777   6.979306   5.700745   4.482388   9.404359
    34  H    9.609861   8.300952   7.218822   5.836594  10.742190
    35  H    9.201259   7.814589   7.056388   5.691921  10.114701
    36  H    7.148786   5.770691   5.308397   4.123425   7.910127
    37  H    2.652383   3.967504   4.674364   6.059834   2.628541
    38  H    3.935533   5.308212   6.226294   7.612288   3.290325
    39  H    4.353604   5.644726   6.189189   7.555111   4.263284
    40  H    4.292996   5.582065   6.413871   7.761299   3.745930
    41  H    3.136394   4.303553   4.893876   6.218818   3.169098
    42  H    3.807098   2.611404   2.800259   2.624792   4.447515
    43  H    5.492128   4.203849   4.050497   3.269447   6.150484
    44  H    4.205822   3.083382   3.487324   3.308107   4.586237
    45  H    5.184955   4.117163   4.622660   4.336037   5.354280
    46  H    5.794382   4.532219   4.576098   3.863985   6.267104
                    6          7          8          9         10
     6  S    0.000000
     7  C    1.751262   0.000000
     8  C    2.588191   1.398679   0.000000
     9  N    2.572371   2.336366   1.401588   0.000000
    10  S    7.127606   7.853966   7.062949   5.700640   0.000000
    11  C    8.696870   9.543896   8.801443   7.428347   1.756836
    12  C    8.727517   9.792086   9.217247   7.827810   2.598456
    13  N    7.535362   8.718838   8.273881   6.897835   2.576094
    14  C    9.936326  10.672149   9.835055   8.491547   2.829122
    15  C   11.071837  11.910604  11.129532   9.768405   4.070384
    16  C   11.099837  12.114489  11.465030  10.079029   4.495121
    17  C   10.012443  11.139208  10.598007   9.208868   3.933336
    18  C    2.830124   1.388551   2.434164   3.643549   9.221136
    19  C    4.067585   2.382121   2.777472   4.170196   9.815887
    20  C    4.489098   2.753413   2.390184   3.724791   9.197818
    21  C    3.924587   2.418955   1.394219   2.500804   7.838834
    22  C    7.723431   9.106209   8.864211   7.540090   4.008726
    23  C    7.862423   9.350272   9.258970   8.010331   4.798938
    24  C    4.009907   3.715478   2.497988   1.475277   4.955753
    25  C    4.890389   4.558113   3.334527   2.505617   4.603582
    26  H    5.092995   6.492425   6.350321   5.096016   3.758450
    27  H    4.513683   5.152682   4.413020   3.030461   2.713078
    28  H    2.715971   4.231020   4.377661   3.391905   5.163170
    29  H   10.114746  10.683883   9.742560   8.450704   3.058529
    30  H   12.041300  12.811802  11.974942  10.633455   4.963969
    31  H   12.089283  13.148458  12.525408  11.137479   5.576934
    32  H   10.262874  11.511146  11.081243   9.702510   4.757629
    33  H    3.064507   2.156323   3.416980   4.492513   9.912307
    34  H    4.963212   3.367035   3.860398   5.252686  10.892692
    35  H    5.570714   3.836489   3.371548   4.623945   9.893727
    36  H    4.747759   3.407734   2.163723   2.805186   7.540006
    37  H    7.060866   8.478900   8.305005   7.015755   4.303704
    38  H    8.715259  10.083470   9.807710   8.467530   4.593342
    39  H    8.249224   9.829632   9.859937   8.659486   5.822897
    40  H    8.689790  10.121087   9.965665   8.702055   4.932368
    41  H    6.999703   8.495722   8.465410   7.272534   4.657645
    42  H    4.286759   4.352423   3.309429   2.079134   4.281995
    43  H    4.539123   3.902700   2.583069   2.068361   5.800741
    44  H    4.797626   4.785997   3.773589   2.790020   3.979791
    45  H    5.891995   5.553153   4.266940   3.430487   4.388220
    46  H    5.054569   4.404844   3.170965   2.796744   5.593249
                   11         12         13         14         15
    11  C    0.000000
    12  C    1.398652   0.000000
    13  N    2.329206   1.398181   0.000000
    14  C    1.387319   2.433942   3.636561   0.000000
    15  C    2.382047   2.778313   4.166918   1.390656   0.000000
    16  C    2.752696   2.390745   3.724324   2.420097   1.396599
    17  C    2.418028   1.393963   2.501624   2.825448   2.429227
    18  C   10.918777  11.173564  10.091970  12.031705  13.280435
    19  C   11.555531  11.949123  10.957632  12.577424  13.879593
    20  C   10.953700  11.486741  10.610942  11.878685  13.219192
    21  C    9.593687  10.157044   9.324421  10.508433  11.850219
    22  C    3.723245   2.514036   1.475132   4.934491   5.198621
    23  C    4.530895   3.362532   2.496928   5.673334   5.857042
    24  C    6.691302   7.293763   6.565561   7.615405   8.941266
    25  C    6.325087   7.129602   6.605473   7.085594   8.458095
    26  H    4.598876   4.061845   2.691454   5.985817   6.764845
    27  H    4.411450   4.828783   4.035204   5.538468   6.771628
    28  H    6.486558   6.264276   4.974952   7.826003   8.810772
    29  H    2.155410   3.416790   4.484450   1.083013   2.157447
    30  H    3.366804   3.861272   5.249360   2.142697   1.083012
    31  H    3.835891   3.371960   4.624648   3.396940   2.149519
    32  H    3.406854   2.163166   2.808932   3.906683   3.407116
    33  H   11.567759  11.718723  10.570376  12.731649  13.939520
    34  H   12.632463  13.021194  12.018224  13.649948  14.954459
    35  H   11.646690  12.264649  11.456488  12.494760  13.856819
    36  H    9.279739   9.968920   9.259699  10.088052  11.454039
    37  H    4.363215   3.316440   2.081487   5.647859   6.040698
    38  H    3.950333   2.609597   2.073125   4.979297   4.986024
    39  H    5.535194   4.290221   3.425796   6.652954   6.728960
    40  H    4.363097   3.202330   2.777869   5.321531   5.335010
    41  H    4.743894   3.807320   2.782593   5.959171   6.344353
    42  H    5.960892   6.488445   5.743547   6.939195   8.220827
    43  H    7.498506   8.149006   7.463577   8.348028   9.680193
    44  H    5.687312   6.440496   5.906946   6.503200   7.849431
    45  H    6.017939   6.974118   6.635556   6.615132   8.002731
    46  H    7.292953   8.123058   7.604544   7.996451   9.374108
                   16         17         18         19         20
    16  C    0.000000
    17  C    1.390008   0.000000
    18  C   13.495051  12.517801   0.000000
    19  C   14.213334  13.321931   1.389493   0.000000
    20  C   13.668284  12.877207   2.420121   1.397127   0.000000
    21  C   12.314605  11.549457   2.825867   2.429044   1.389392
    22  C    4.412693   3.028465  10.439708  11.435156  11.247798
    23  C    5.004941   3.685463  10.628828  11.701900  11.632778
    24  C    9.403840   8.680910   4.918876   5.170468   4.376799
    25  C    9.076829   8.505570   5.681408   5.811520   4.907962
    26  H    6.413668   5.159876   7.813849   8.840669   8.740126
    27  H    7.052061   6.219446   6.526961   7.168462   6.658005
    28  H    8.651724   7.472303   5.492111   6.610363   6.706760
    29  H    3.406242   3.908453  12.013847  12.447652  11.652500
    30  H    2.152700   3.405100  14.171626  14.713748  13.994820
    31  H    1.083229   2.137013  14.528717  15.270052  14.741517
    32  H    2.149317   1.081359  12.877201  13.763412  13.410633
    33  H   14.069537  13.030285   1.082880   2.156366   3.406170
    34  H   15.288782  14.391469   2.141617   1.082986   2.152663
    35  H   14.384243  13.658293   3.396503   2.149812   1.083111
    36  H   12.022779  11.358858   3.906966   3.406771   2.148402
    37  H    5.335435   3.972975   9.792077  10.818432  10.687327
    38  H    4.006440   2.655895  11.421119  12.401493  12.183306
    39  H    5.746517   4.425989  11.063005  12.204519  12.232973
    40  H    4.429470   3.246099  11.406248  12.439663  12.317052
    41  H    5.675499   4.403502   9.746541  10.835219  10.814431
    42  H    8.614627   7.857583   5.632843   6.022320   5.318600
    43  H   10.196330   9.520692   4.921652   4.931887   3.968504
    44  H    8.411467   7.808199   5.979841   6.295991   5.563070
    45  H    8.745597   8.312573   6.653919   6.683968   5.659062
    46  H   10.034698   9.491600   5.337463   5.276499   4.294490
                   21         22         23         24         25
    21  C    0.000000
    22  C   10.031235   0.000000
    23  C   10.486031   1.522564   0.000000
    24  C    2.993848   7.434892   8.096198   0.000000
    25  C    3.576259   7.661959   8.208301   1.523048   0.000000
    26  H    7.593922   2.633250   3.081995   5.286089   5.739275
    27  H    5.335838   4.962106   5.584014   2.601415   2.736749
    28  H    5.736315   5.024235   5.247594   4.179395   4.945979
    29  H   10.285364   5.863505   6.597120   7.451499   6.775303
    30  H   12.623471   6.265329   6.886119   9.732096   9.163168
    31  H   13.389974   5.088786   5.571190  10.478271  10.159637
    32  H   12.112236   2.769411   3.276989   9.298575   9.232004
    33  H    3.908743  10.787030  10.876362   5.852126   6.630509
    34  H    3.404516  12.465675  12.696771   6.235303   6.836957
    35  H    2.136544  12.162469  12.585892   5.048108   5.441610
    36  H    1.081210  10.097447  10.645363   2.728804   3.101472
    37  H    9.507936   1.088479   2.171305   7.008073   7.442152
    38  H   10.947177   1.088557   2.166874   8.274007   8.515835
    39  H   11.137899   2.145554   1.092370   8.854919   9.083456
    40  H   11.145652   2.172424   1.091770   8.696946   8.640115
    41  H    9.711728   2.171628   1.091638   7.482335   7.564984
    42  H    3.961683   6.596671   7.394530   1.087942   2.179281
    43  H    2.637186   8.332560   9.077801   1.089326   2.161147
    44  H    4.277702   6.962229   7.374846   2.180644   1.091404
    45  H    4.334903   7.817220   8.491761   2.143985   1.092279
    46  H    3.092709   8.640547   9.090620   2.169102   1.091545
                   26         27         28         29         30
    26  H    0.000000
    27  H    3.073410   0.000000
    28  H    2.401652   3.067468   0.000000
    29  H    6.599586   5.639125   8.215780   0.000000
    30  H    7.834688   7.676154   9.841231   2.480841   0.000000
    31  H    7.295146   8.113223   9.590471   4.296457   2.473243
    32  H    5.241588   6.792112   7.628900   4.989680   4.293754
    33  H    8.157133   7.226063   5.771496  12.778246  14.862601
    34  H    9.857812   8.247560   7.584675  13.508741  15.784567
    35  H    9.699964   7.453638   7.734972  12.190428  14.583313
    36  H    7.799238   5.238263   6.192550   9.772009  12.165665
    37  H    2.077932   4.707035   4.350350   6.502770   7.112730
    38  H    3.633467   5.841753   6.008110   5.984660   6.002727
    39  H    3.636670   6.425499   5.649910   7.610676   7.738312
    40  H    3.975913   6.121313   6.134883   6.272277   6.300895
    41  H    2.603946   5.030093   4.493564   6.773911   7.379736
    42  H    4.574759   2.041978   3.817553   6.865698   9.046113
    43  H    6.216096   3.606876   5.034222   8.114499  10.426293
    44  H    5.105394   2.221292   4.508794   6.270289   8.590457
    45  H    6.167597   3.096322   5.705836   6.183953   8.625683
    46  H    6.636482   3.728825   5.601731   7.622217  10.039114
                   31         32         33         34         35
    31  H    0.000000
    32  H    2.461786   0.000000
    33  H   15.080461  13.315582   0.000000
    34  H   16.344426  14.821502   2.479701   0.000000
    35  H   15.463757  14.239787   4.295820   2.472813   0.000000
    36  H   13.103946  11.998769   4.989844   4.292849   2.460944
    37  H    6.034122   3.737019  10.107265  11.834924  11.624541
    38  H    4.522164   2.135666  11.775656  13.436612  13.080899
    39  H    6.179672   3.798786  11.221244  13.170277  13.219050
    40  H    4.903398   2.822551  11.684173  13.441059  13.241630
    41  H    6.343110   4.184241   9.971412  11.812757  11.780884
    42  H    9.676001   8.449672   6.487013   7.092466   6.016712
    43  H   11.266580  10.156539   5.921056   5.944860   4.492146
    44  H    9.487561   8.514405   6.830981   7.327941   6.190827
    45  H    9.822186   9.121332   7.632533   7.688338   6.060697
    46  H   11.114458  10.223332   6.321727   6.237210   4.719139
                   36         37         38         39         40
    36  H    0.000000
    37  H    9.634958   0.000000
    38  H   10.970574   1.745864   0.000000
    39  H   11.368164   2.493096   2.489559   0.000000
    40  H   11.247255   3.080893   2.523809   1.768986   0.000000
    41  H    9.926847   2.530451   3.077234   1.769902   1.772337
    42  H    3.729699   6.137001   7.375772   8.138689   8.025160
    43  H    2.155651   7.856891   9.119912   9.814450   9.698288
    44  H    3.989438   6.834683   7.860770   8.277433   7.751096
    45  H    3.651952   7.665434   8.578314   9.414859   8.854914
    46  H    2.563419   8.424038   9.526599   9.957439   9.504914
                   41         42         43         44         45
    41  H    0.000000
    42  H    6.885324   0.000000
    43  H    8.502080   1.744175   0.000000
    44  H    6.688405   2.566060   3.079375   0.000000
    45  H    7.958127   2.487528   2.492555   1.770694   0.000000
    46  H    8.379356   3.082999   2.498676   1.767598   1.768937
                   46
    46  H    0.000000
 Stoichiometry    C21H21N2S2(1+)
 Framework group  C1[X(C21H21N2S2)]
 Deg. of freedom   132
 Full point group                 C1      NOp   1
 Largest Abelian subgroup         C1      NOp   1
 Largest concise Abelian subgroup C1      NOp   1
                         Standard orientation:                         
 ---------------------------------------------------------------------
 Center     Atomic      Atomic             Coordinates (Angstroms)
 Number     Number       Type             X           Y           Z
 ---------------------------------------------------------------------
      1          6           0        1.185932    1.124188    0.259065
      2          6           0       -0.064042    0.518894    0.184736
      3          6           0       -1.255062    1.232433    0.206071
      4          6           0       -2.576908    0.775971    0.134368
      5          6           0        2.392634    0.431471    0.171283
      6         16           0       -3.827667    1.970009   -0.187075
      7          6           0       -5.077877    0.744792   -0.134775
      8          6           0       -4.509195   -0.508640    0.113846
      9          7           0       -3.118372   -0.458179    0.279721
     10         16           0        2.505198   -1.300121   -0.125106
     11          6           0        4.260315   -1.225762   -0.102553
     12          6           0        4.688784    0.087010    0.119416
     13          7           0        3.627512    0.981655    0.287411
     14          6           0        5.159317   -2.267461   -0.279503
     15          6           0        6.517913   -1.973596   -0.237257
     16          6           0        6.953940   -0.663841   -0.025333
     17          6           0        6.051566    0.378213    0.153458
     18          6           0       -6.446804    0.904176   -0.304215
     19          6           0       -7.251229   -0.226106   -0.226408
     20          6           0       -6.689747   -1.482485    0.014868
     21          6           0       -5.320051   -1.640504    0.186250
     22          6           0        3.847144    2.415669    0.554580
     23          6           0        3.911762    3.249637   -0.717632
     24          6           0       -2.369369   -1.660308    0.692423
     25          6           0       -1.918854   -2.522991   -0.479110
     26          1           0        1.228852    2.199196    0.376562
     27          1           0       -0.096636   -0.556945    0.072235
     28          1           0       -1.165193    2.314370    0.224199
     29          1           0        4.813961   -3.279951   -0.448352
     30          1           0        7.240415   -2.768718   -0.373960
     31          1           0        8.015538   -0.449707   -0.002068
     32          1           0        6.406822    1.388085    0.306065
     33          1           0       -6.875736    1.880738   -0.491225
     34          1           0       -8.321880   -0.129159   -0.357431
     35          1           0       -7.330326   -2.354283    0.067360
     36          1           0       -4.901973   -2.621689    0.363736
     37          1           0        3.048585    2.754296    1.212168
     38          1           0        4.772710    2.494849    1.122044
     39          1           0        4.082538    4.295496   -0.452515
     40          1           0        4.728911    2.924468   -1.364544
     41          1           0        2.978199    3.187215   -1.279982
     42          1           0       -1.531667   -1.329317    1.302601
     43          1           0       -3.027666   -2.224702    1.351768
     44          1           0       -1.276100   -1.972556   -1.168349
     45          1           0       -1.359149   -3.379171   -0.096017
     46          1           0       -2.775672   -2.899604   -1.040801
 ---------------------------------------------------------------------
 Rotational constants (GHZ):           0.5429629           0.0715335           0.0638922
 Standard basis: def2TZVP (5D, 7F)
 There are  1038 symmetry adapted cartesian basis functions of A   symmetry.
 There are   913 symmetry adapted basis functions of A   symmetry.
   913 basis functions,  1479 primitive gaussians,  1038 cartesian basis functions
    96 alpha electrons       96 beta electrons
       nuclear repulsion energy      2285.6548009337 Hartrees.
 NAtoms=   46 NActive=   46 NUniq=   46 SFac= 1.00D+00 NAtFMM=   60 NAOKFM=F Big=F
 Integral buffers will be    131072 words long.
 Raffenetti 1 integral format.
 Two-electron integral symmetry is turned on.
 Nuclear repulsion after empirical dispersion term =     2285.6199203317 Hartrees.
 ------------------------------------------------------------------------------
 Polarizable Continuum Model (PCM)
 =================================
 Model                : PCM.
 Atomic radii         : SMD-Coulomb.
 Polarization charges : Total charges.
 Charge compensation  : None.
 Solution method      : On-the-fly selection.
 Cavity type          : VdW (van der Waals Surface) (Alpha=1.000).
 Cavity algorithm     : GePol (No added spheres)
                        Default sphere list used, NSphG=   46.
                        Lebedev-Laikov grids with approx.  5.0 points / Ang**2.
                        Smoothing algorithm: York/Karplus (Gamma=1.0000).
                        Polarization charges: spherical gaussians, with
                                              point-specific exponents (IZeta= 3).
                        Self-potential: point-specific (ISelfS= 7).
                        Self-field    : sphere-specific E.n sum rule (ISelfD= 2).
 Solvent              : Ethanol, Eps=  24.852000 Eps(inf)=   1.852593
 ------------------------------------------------------------------------------
 ------------------------------------------------------------------------------
 Atomic radii for non-electrostatic terms: SMD-CDS.
 ------------------------------------------------------------------------------
 Nuclear repulsion after PCM non-electrostatic terms =     2285.6138644148 Hartrees.
 One-electron integrals computed using PRISM.
   1 Symmetry operations used in ECPInt.
 ECPInt:  NShTT=   66066 NPrTT=  205761 LenC2=   50229 LenP2D=  107572.
 LDataN:  DoStor=T MaxTD1= 6 Len=  172
 NBasis=   913 RedAO= T EigKep=  6.82D-06  NBF=   913
 NBsUse=   913 1.00D-06 EigRej= -1.00D+00 NBFU=   913
 ExpMin= 9.52D-02 ExpMax= 6.07D+04 ExpMxC= 2.07D+03 IAcc=3 IRadAn=         5 AccDes= 0.00D+00
 Harris functional with IExCor= 4639 and IRadAn=       5 diagonalized for initial guess.
 HarFok:  IExCor= 4639 AccDes= 0.00D+00 IRadAn=         5 IDoV= 1 UseB2=F ITyADJ=14
 ICtDFT=  3500011 ScaDFX=  1.000000  1.000000  1.000000  1.000000
 FoFCou: FMM=F IPFlag=           0 FMFlag=      100000 FMFlg1=           0
         NFxFlg=           0 DoJE=T BraDBF=F KetDBF=T FulRan=T
         wScrn=  0.000000 ICntrl=       500 IOpCl=  0 I1Cent=   200000004 NGrid=           0
         NMat0=    1 NMatS0=      1 NMatT0=    0 NMatD0=    1 NMtDS0=    0 NMtDT0=    0
 Petite list used in FoFCou.
 Requested convergence on RMS density matrix=1.00D-08 within 128 cycles.
 Requested convergence on MAX density matrix=1.00D-06.
 Requested convergence on             energy=1.00D-06.
 No special actions if energy rises.
 Inv3:  Mode=1 IEnd=    37446267.
 Iteration    1 A*A^-1 deviation from unit magnitude is 3.33D-15 for   2473.
 Iteration    1 A*A^-1 deviation from orthogonality  is 2.45D-15 for   1360    236.
 Iteration    1 A^-1*A deviation from unit magnitude is 3.33D-15 for   2473.
 Iteration    1 A^-1*A deviation from orthogonality  is 2.66D-15 for   2427     48.
 Error on total polarization charges =  0.05849
 SCF Done:  E(RwB97XD) =  -1718.68768528     A.U. after   16 cycles
            NFock= 16  Conv=0.45D-08     -V/T= 2.0037
 SMD-CDS (non-electrostatic) energy       (kcal/mol) =      -3.80
 (included in total energy above)
 DoSCS=F DFT=T ScalE2(SS,OS)=  1.000000  1.000000
 ExpMin= 9.52D-02 ExpMax= 6.07D+04 ExpMxC= 2.07D+03 IAcc=3 IRadAn=         5 AccDes= 0.00D+00
 HarFok:  IExCor=  205 AccDes= 0.00D+00 IRadAn=         5 IDoV=-2 UseB2=F ITyADJ=14
 ICtDFT= 12500011 ScaDFX=  1.000000  1.000000  1.000000  1.000000
 GSVD:  LWork=       -1353 too small for GESVD, short by        5940 words or        5940 for optimal perf.
 Range of M.O.s used for correlation:    34   913
 NBasis=   913 NAE=    96 NBE=    96 NFC=    33 NFV=     0
 NROrb=    880 NOA=    63 NOB=    63 NVA=   817 NVB=   817

 **** Warning!!: The largest alpha MO coefficient is  0.47464327D+02

 NEqPCM:  Using non-equilibrium solvation (IEInf=1, Eps=  24.8520, EpsInf=   1.8526)
 Inv3:  Mode=1 IEnd=    37446267.
 Iteration    1 A*A^-1 deviation from unit magnitude is 3.77D-15 for    895.
 Iteration    1 A*A^-1 deviation from orthogonality  is 2.05D-15 for   1360    236.
 Iteration    1 A^-1*A deviation from unit magnitude is 4.00D-15 for    895.
 Iteration    1 A^-1*A deviation from orthogonality  is 1.99D-15 for   1053    457.
 Orbital symmetries:
       Occupied  (A) (A) (A) (A) (A) (A) (A) (A) (A) (A) (A) (A)
                 (A) (A) (A) (A) (A) (A) (A) (A) (A) (A) (A) (A)
                 (A) (A) (A) (A) (A) (A) (A) (A) (A) (A) (A) (A)
                 (A) (A) (A) (A) (A) (A) (A) (A) (A) (A) (A) (A)
                 (A) (A) (A) (A) (A) (A) (A) (A) (A) (A) (A) (A)
                 (A) (A) (A) (A) (A) (A) (A) (A) (A) (A) (A) (A)
                 (A) (A) (A) (A) (A) (A) (A) (A) (A) (A) (A) (A)
                 (A) (A) (A) (A) (A) (A) (A) (A) (A) (A) (A) (A)
       Virtual   (A) (A) (A) (A) (A) (A) (A) (A) (A) (A) (A) (A)
                 (A) (A) (A) (A) (A) (A) (A) (A) (A) (A) (A) (A)
                 (A) (A) (A) (A) (A) (A) (A) (A) (A) (A) (A) (A)
                 (A) (A) (A) (A) (A) (A) (A) (A) (A) (A) (A) (A)
                 (A) (A) (A) (A) (A) (A) (A) (A) (A) (A) (A) (A)
                 (A) (A) (A) (A) (A) (A) (A) (A) (A) (A) (A) (A)
                 (A) (A) (A) (A) (A) (A) (A) (A) (A) (A) (A) (A)
                 (A) (A) (A) (A) (A) (A) (A) (A) (A) (A) (A) (A)
                 (A) (A) (A) (A) (A) (A) (A) (A) (A) (A) (A) (A)
                 (A) (A) (A) (A) (A) (A) (A) (A) (A) (A) (A) (A)
                 (A) (A) (A) (A) (A) (A) (A) (A) (A) (A) (A) (A)
                 (A) (A) (A) (A) (A) (A) (A) (A) (A) (A) (A) (A)
                 (A) (A) (A) (A) (A) (A) (A) (A) (A) (A) (A) (A)
                 (A) (A) (A) (A) (A) (A) (A) (A) (A) (A) (A) (A)
                 (A) (A) (A) (A) (A) (A) (A) (A) (A) (A) (A) (A)
                 (A) (A) (A) (A) (A) (A) (A) (A) (A) (A) (A) (A)
                 (A) (A) (A) (A) (A) (A) (A) (A) (A) (A) (A) (A)
                 (A) (A) (A) (A) (A) (A) (A) (A) (A) (A) (A) (A)
                 (A) (A) (A) (A) (A) (A) (A) (A) (A) (A) (A) (A)
                 (A) (A) (A) (A) (A) (A) (A) (A) (A) (A) (A) (A)
                 (A) (A) (A) (A) (A) (A) (A) (A) (A) (A) (A) (A)
                 (A) (A) (A) (A) (A) (A) (A) (A) (A) (A) (A) (A)
                 (A) (A) (A) (A) (A) (A) (A) (A) (A) (A) (A) (A)
                 (A) (A) (A) (A) (A) (A) (A) (A) (A) (A) (A) (A)
                 (A) (A) (A) (A) (A) (A) (A) (A) (A) (A) (A) (A)
                 (A) (A) (A) (A) (A) (A) (A) (A) (A) (A) (A) (A)
                 (A) (A) (A) (A) (A) (A) (A) (A) (A) (A) (A) (A)
                 (A) (A) (A) (A) (A) (A) (A) (A) (A) (A) (A) (A)
                 (A) (A) (A) (A) (A) (A) (A) (A) (A) (A) (A) (A)
                 (A) (A) (A) (A) (A) (A) (A) (A) (A) (A) (A) (A)
                 (A) (A) (A) (A) (A) (A) (A) (A) (A) (A) (A) (A)
                 (A) (A) (A) (A) (A) (A) (A) (A) (A) (A) (A) (A)
                 (A) (A) (A) (A) (A) (A) (A) (A) (A) (A) (A) (A)
                 (A) (A) (A) (A) (A) (A) (A) (A) (A) (A) (A) (A)
                 (A) (A) (A) (A) (A) (A) (A) (A) (A) (A) (A) (A)
                 (A) (A) (A) (A) (A) (A) (A) (A) (A) (A) (A) (A)
                 (A) (A) (A) (A) (A) (A) (A) (A) (A) (A) (A) (A)
                 (A) (A) (A) (A) (A) (A) (A) (A) (A) (A) (A) (A)
                 (A) (A) (A) (A) (A) (A) (A) (A) (A) (A) (A) (A)
                 (A) (A) (A) (A) (A) (A) (A) (A) (A) (A) (A) (A)
                 (A) (A) (A) (A) (A) (A) (A) (A) (A) (A) (A) (A)
                 (A) (A) (A) (A) (A) (A) (A) (A) (A) (A) (A) (A)
                 (A) (A) (A) (A) (A) (A) (A) (A) (A) (A) (A) (A)
                 (A) (A) (A) (A) (A) (A) (A) (A) (A) (A) (A) (A)
                 (A) (A) (A) (A) (A) (A) (A) (A) (A) (A) (A) (A)
                 (A) (A) (A) (A) (A) (A) (A) (A) (A) (A) (A) (A)
                 (A) (A) (A) (A) (A) (A) (A) (A) (A) (A) (A) (A)
                 (A) (A) (A) (A) (A) (A) (A) (A) (A) (A) (A) (A)
                 (A) (A) (A) (A) (A) (A) (A) (A) (A) (A) (A) (A)
                 (A) (A) (A) (A) (A) (A) (A) (A) (A) (A) (A) (A)
                 (A) (A) (A) (A) (A) (A) (A) (A) (A) (A) (A) (A)
                 (A) (A) (A) (A) (A) (A) (A) (A) (A) (A) (A) (A)
                 (A) (A) (A) (A) (A) (A) (A) (A) (A) (A) (A) (A)
                 (A) (A) (A) (A) (A) (A) (A) (A) (A) (A) (A) (A)
                 (A) (A) (A) (A) (A) (A) (A) (A) (A) (A) (A) (A)
                 (A) (A) (A) (A) (A) (A) (A) (A) (A) (A) (A) (A)
                 (A) (A) (A) (A) (A) (A) (A) (A) (A) (A) (A) (A)
                 (A) (A) (A) (A) (A) (A) (A) (A) (A) (A) (A) (A)
                 (A) (A) (A) (A) (A) (A) (A) (A) (A) (A) (A) (A)
                 (A) (A) (A) (A) (A) (A) (A) (A) (A) (A) (A) (A)
                 (A) (A) (A) (A) (A) (A) (A) (A) (A) (A) (A) (A)
                 (A) (A) (A) (A) (A) (A) (A) (A) (A) (A) (A) (A)
                 (A) (A) (A) (A) (A) (A) (A) (A) (A) (A) (A) (A)
                 (A) (A) (A) (A) (A) (A) (A) (A) (A) (A) (A) (A)
                 (A) (A) (A) (A) (A) (A) (A) (A) (A) (A) (A) (A)
                 (A) (A) (A) (A) (A) (A) (A) (A) (A) (A) (A) (A)
                 (A) (A) (A) (A) (A) (A) (A) (A) (A) (A) (A) (A)
                 (A) (A) (A) (A) (A) (A) (A) (A) (A) (A) (A) (A)
                 (A)
   600 initial guesses have been made.
 Convergence on wavefunction:    0.001000000000000
 Iteration     1 Dimension   600 NMult     0 NNew    600
 CISAX will form   224 AO SS matrices at one time.
 New state      3 was old state      8
 New state      4 was old state      3
 New state      5 was old state     10
 New state      6 was old state      4
 New state      7 was old state      5
 New state      8 was old state      6
 New state      9 was old state      7
 New state     10 was old state      9
 New state     13 was old state     30
 New state     14 was old state     36
 New state     15 was old state     44
 New state     16 was old state     22
 New state     17 was old state     35
 New state     18 was old state     14
 New state     19 was old state     13
 New state     20 was old state     37
 New state     21 was old state     26
 New state     22 was old state     19
 New state     23 was old state     27
 New state     24 was old state     34
 New state     25 was old state     28
 New state     26 was old state     42
 New state     27 was old state     24
 New state     28 was old state     39
 New state     29 was old state     53
 New state     30 was old state     40
 New state     31 was old state     25
 New state     32 was old state     41
 New state     33 was old state     21
 New state     34 was old state     23
 New state     35 was old state     48
 New state     36 was old state     51
 New state     37 was old state     43
 New state     38 was old state     29
 New state     39 was old state     49
 New state     40 was old state     47
 New state     41 was old state     81
 New state     42 was old state     99
 New state     43 was old state     52
 New state     44 was old state    107
 New state     45 was old state     46
 New state     46 was old state     68
 New state     47 was old state    120
 New state     48 was old state    124
 New state     49 was old state     57
 New state     50 was old state     59
 New state     51 was old state     66
 New state     52 was old state     56
 New state     53 was old state     55
 New state     54 was old state     65
 New state     55 was old state     54
 New state     56 was old state     71
 New state     57 was old state     74
 New state     58 was old state     73
 New state     59 was old state     72
 New state     60 was old state     76
 New state     61 was old state    104
 New state     62 was old state     15
 New state     63 was old state    168
 New state     64 was old state     16
 New state     65 was old state    159
 New state     66 was old state     69
 New state     67 was old state     62
 New state     68 was old state    112
 New state     69 was old state     67
 New state     70 was old state     18
 New state     71 was old state     20
 New state     72 was old state    176
 New state     73 was old state     63
 New state     74 was old state     38
 New state     75 was old state     17
 New state     76 was old state     32
 New state     77 was old state    170
 New state     78 was old state    117
 New state     79 was old state     80
 New state     80 was old state     45
 New state     81 was old state    231
 New state     82 was old state     70
 New state     83 was old state     98
 New state     84 was old state     58
 New state     85 was old state     31
 New state     86 was old state    126
 New state     87 was old state     95
 New state     88 was old state    138
 New state     89 was old state    100
 New state     90 was old state     64
 New state     92 was old state     86
 New state     93 was old state    131
 New state     94 was old state     33
 New state     95 was old state     78
 New state     96 was old state     94
 New state     97 was old state     88
 New state     98 was old state     90
 New state     99 was old state    101
 New state    100 was old state     79
 New state    101 was old state    105
 New state    102 was old state    151
 New state    103 was old state    218
 New state    104 was old state    163
 New state    105 was old state     83
 New state    106 was old state    150
 New state    107 was old state     77
 New state    108 was old state    113
 New state    109 was old state    129
 New state    110 was old state    185
 New state    111 was old state    142
 New state    112 was old state    147
 New state    113 was old state     82
 New state    114 was old state    137
 New state    115 was old state    173
 New state    116 was old state     85
 New state    117 was old state     92
 New state    118 was old state    109
 New state    119 was old state    144
 New state    120 was old state    152
 New state    121 was old state     96
 New state    122 was old state    128
 New state    123 was old state    165
 New state    124 was old state    197
 New state    125 was old state    177
 New state    126 was old state    132
 New state    127 was old state    158
 New state    128 was old state    116
 New state    129 was old state    135
 New state    130 was old state    162
 New state    131 was old state    125
 New state    132 was old state     89
 New state    133 was old state    139
 New state    134 was old state    143
 New state    135 was old state    160
 New state    136 was old state    179
 New state    137 was old state    175
 New state    138 was old state    201
 New state    139 was old state    148
 New state    140 was old state    207
 New state    141 was old state    145
 New state    142 was old state    164
 New state    143 was old state    181
 New state    144 was old state    193
 New state    145 was old state    153
 New state    146 was old state    161
 New state    147 was old state    133
 New state    148 was old state    214
 New state    149 was old state    198
 New state    150 was old state    245
 Iteration     2 Dimension   900 NMult   600 NNew    300
 New state      3 was old state      4
 New state      4 was old state      3
 New state      5 was old state      6
 New state      6 was old state      5
 New state     11 was old state     12
 New state     12 was old state     11
 New state     14 was old state     16
 New state     16 was old state     14
 New state     17 was old state     21
 New state     18 was old state     22
 New state     19 was old state     18
 New state     20 was old state     17
 New state     21 was old state     19
 New state     22 was old state     20
 New state     24 was old state     27
 New state     25 was old state     24
 New state     26 was old state     25
 New state     27 was old state     31
 New state     28 was old state     34
 New state     29 was old state     26
 New state     30 was old state     28
 New state     31 was old state     33
 New state     32 was old state     29
 New state     33 was old state     30
 New state     34 was old state     38
 New state     35 was old state     32
 New state     37 was old state     35
 New state     38 was old state     37
 New state     39 was old state     40
 New state     40 was old state     39
 New state     41 was old state     43
 New state     42 was old state     41
 New state     43 was old state     42
 New state     44 was old state     46
 New state     45 was old state     44
 New state     46 was old state     45
 New state     48 was old state     58
 New state     49 was old state     48
 New state     50 was old state     59
 New state     51 was old state     49
 New state     53 was old state     50
 New state     54 was old state     51
 New state     55 was old state     53
 New state     56 was old state     54
 New state     57 was old state     56
 New state     58 was old state     55
 New state     59 was old state     62
 New state     60 was old state     57
 New state     61 was old state     63
 New state     62 was old state     61
 New state     63 was old state     60
 New state     66 was old state     68
 New state     67 was old state     66
 New state     68 was old state     67
 New state     69 was old state     80
 New state     70 was old state     73
 New state     71 was old state     69
 New state     73 was old state     83
 New state     74 was old state     77
 New state     75 was old state     78
 New state     76 was old state     71
 New state     77 was old state     70
 New state     78 was old state     75
 New state     80 was old state     82
 New state     81 was old state     74
 New state     82 was old state     76
 New state     83 was old state     81
 New state     84 was old state     85
 New state     85 was old state     86
 New state     86 was old state     87
 New state     87 was old state     84
 New state     88 was old state     89
 New state     89 was old state     88
 New state     95 was old state     96
 New state     96 was old state     95
 New state     97 was old state     98
 New state     98 was old state     97
 New state    101 was old state    108
 New state    103 was old state    101
 New state    104 was old state    103
 New state    105 was old state    104
 New state    106 was old state    111
 New state    107 was old state    106
 New state    108 was old state    109
 New state    109 was old state    105
 New state    111 was old state    112
 New state    112 was old state    114
 New state    114 was old state    117
 New state    115 was old state    116
 New state    116 was old state    115
 New state    117 was old state    120
 New state    120 was old state    121
 New state    121 was old state    122
 New state    122 was old state    126
 New state    125 was old state    127
 New state    126 was old state    125
 New state    127 was old state    129
 New state    128 was old state    132
 New state    129 was old state    128
 New state    132 was old state    133
 New state    133 was old state    136
 New state    136 was old state    137
 New state    137 was old state    138
 No map to state    138
 New state    140 was old state    142
 New state    141 was old state    140
 New state    142 was old state    141
 New state    144 was old state    146
 New state    145 was old state    150
 New state    146 was old state    149
 New state    147 was old state    144
 New state    148 was old state    145
 New state    149 was old state    147
 New state    150 was old state    153
 Iteration     3 Dimension  1200 NMult   900 NNew    300
 New state     13 was old state     14
 New state     14 was old state     13
 New state    141 was old state    143
 New state    142 was old state    141
 New state    143 was old state    142
 New state    149 was old state    150
 New state    150 was old state    149
 Iteration     4 Dimension  1500 NMult  1200 NNew    300
 Iteration     5 Dimension  1618 NMult  1500 NNew    118
 Iteration     6 Dimension  1636 NMult  1618 NNew     18
 Iteration     7 Dimension  1642 NMult  1636 NNew      6
 ***********************************************************************
 Excited states from <AA,BB:AA,BB> singles matrix:
 ***********************************************************************
 
 Ground to excited state transition densities written to RWF  633
 Ground to excited state transition electric dipole moments (Au):
       state          X           Y           Z        Dip. S.      Osc.
         1         5.0936     -0.1921     -0.0021     25.9812      1.7001
         2         0.4613      0.5696      0.1453      0.5583      0.0628
         3         0.0429      0.2398     -0.0682      0.0640      0.0074
         4         0.1012     -0.1235     -0.0525      0.0283      0.0033
         5        -0.0358     -0.5437     -0.0281      0.2977      0.0349
         6        -0.0277     -0.0657      0.0074      0.0051      0.0006
         7         0.9864      0.3294      0.0469      1.0836      0.1332
         8         0.0251     -0.7276      0.1067      0.5414      0.0676
         9         0.2326      0.1056      0.1375      0.0841      0.0108
        10         0.9327      0.8955      0.0059      1.6719      0.2211
        11         0.0123     -0.4854     -0.0617      0.2395      0.0337
        12        -0.5832      0.6511      0.0426      0.7659      0.1084
        13        -1.6879      0.5803     -0.0328      3.1868      0.4766
        14         0.7809     -0.1141      0.0221      0.6233      0.0933
        15        -0.0930      0.8102      0.2148      0.7112      0.1068
        16        -0.5368      0.3217      0.0169      0.3919      0.0590
        17        -0.5664     -0.0266     -0.0602      0.3251      0.0497
        18        -0.5101     -0.4462      0.0513      0.4620      0.0710
        19         0.2695      0.1226      0.0250      0.0883      0.0140
        20         0.0769     -0.0394     -0.0031      0.0075      0.0012
        21        -0.0595     -0.4219      0.0644      0.1857      0.0299
        22         0.2074     -0.1336      0.0491      0.0633      0.0103
        23         0.3432      0.1351      0.0558      0.1392      0.0227
        24         0.0434      0.5737      0.0494      0.3335      0.0553
        25        -0.0086     -0.1263      0.0929      0.0247      0.0042
        26         0.3595      0.3331      0.0034      0.2402      0.0406
        27        -1.4832     -1.0400      0.0422      3.2832      0.5577
        28        -1.0659      0.2462     -0.0654      1.2009      0.2044
        29        -0.4032      0.0352      0.0776      0.1698      0.0290
        30        -0.0692      0.0655      0.1653      0.0364      0.0063
        31         0.5250     -0.7012      0.1381      0.7865      0.1375
        32         0.1356     -0.3318     -0.1051      0.1395      0.0246
        33         0.1182     -0.1875     -0.1507      0.0718      0.0127
        34        -0.1714     -0.3041     -0.1539      0.1456      0.0261
        35        -0.1177     -0.1071     -0.0106      0.0254      0.0046
        36        -0.1280      0.1387     -0.0802      0.0421      0.0077
        37         0.0212      0.0164      0.0377      0.0021      0.0004
        38        -0.1723     -0.0089     -0.0965      0.0391      0.0073
        39         0.1669     -0.1888     -0.0228      0.0640      0.0120
        40         0.1249     -0.0169     -0.0169      0.0162      0.0030
        41         0.2163      0.0757      0.0287      0.0534      0.0101
        42        -0.2296      0.1041     -0.0102      0.0637      0.0121
        43        -0.1060      0.0550     -0.0555      0.0173      0.0033
        44        -0.0804      0.1485     -0.0193      0.0289      0.0055
        45        -0.0477      0.0361      0.0578      0.0069      0.0013
        46         0.2592     -0.4256     -0.0283      0.2491      0.0480
        47        -0.3720     -0.3110     -0.2617      0.3036      0.0589
        48         0.3161      0.1146     -0.0589      0.1165      0.0226
        49         0.1383     -0.0850      0.0634      0.0304      0.0059
        50        -0.7459      1.1151     -0.0057      1.7999      0.3514
        51        -0.4167      0.5084     -0.1050      0.4432      0.0872
        52        -0.2641      0.2641      0.1083      0.1512      0.0298
        53        -0.0829      0.0568      0.0731      0.0154      0.0031
        54         0.0220      0.0235     -0.1366      0.0197      0.0039
        55        -0.0734      0.1869     -0.0613      0.0441      0.0088
        56        -0.0116     -0.1347      0.0678      0.0229      0.0046
        57        -0.1892     -0.0994     -0.0155      0.0459      0.0093
        58        -0.0357      0.0314      0.0697      0.0071      0.0014
        59        -0.0748     -0.6958      0.0341      0.4909      0.0998
        60        -0.1323      0.1551     -0.0264      0.0423      0.0086
        61         0.4890      0.3081     -0.0536      0.3369      0.0688
        62        -0.1652     -0.0705      0.0460      0.0344      0.0070
        63        -0.1382     -0.0768     -0.2658      0.0957      0.0196
        64        -0.0170     -0.0389      0.3212      0.1050      0.0216
        65         0.0293      0.0284     -0.1770      0.0330      0.0068
        66         0.0997      0.0536     -0.0684      0.0175      0.0036
        67         0.0433     -0.4268      0.0432      0.1859      0.0384
        68        -0.0527     -0.0843     -0.0717      0.0150      0.0031
        69         0.0669     -0.5056      0.0560      0.2632      0.0548
        70         0.2934      0.3108      0.0455      0.1847      0.0385
        71         0.1198      0.1427      0.1163      0.0482      0.0101
        72         0.0298     -0.2019     -0.0639      0.0457      0.0096
        73         0.2912      0.2350     -0.0571      0.1433      0.0300
        74         0.1050     -0.0581     -0.0375      0.0158      0.0033
        75         0.0347     -0.0640      0.0878      0.0130      0.0027
        76        -0.0627      0.0784      0.1331      0.0278      0.0059
        77         0.0258      0.1943      0.0168      0.0387      0.0082
        78         0.0388     -0.0575     -0.0318      0.0058      0.0012
        79         0.0659      0.1108      0.0329      0.0177      0.0038
        80        -0.1385      0.0454      0.0135      0.0214      0.0046
        81         0.0572     -0.0478      0.0308      0.0065      0.0014
        82        -0.0377     -0.0440     -0.0776      0.0094      0.0020
        83         0.0359     -0.0999      0.1467      0.0328      0.0070
        84        -0.1606      0.0658     -0.0056      0.0301      0.0065
        85        -0.0285     -0.0962      0.0192      0.0104      0.0023
        86        -0.0040      0.0143      0.0958      0.0094      0.0020
        87        -0.0721     -0.0366      0.0322      0.0076      0.0016
        88         0.0285      0.0168      0.0848      0.0083      0.0018
        89        -0.1627     -0.0660     -0.0499      0.0333      0.0073
        90         0.0452     -0.0017      0.2498      0.0644      0.0140
        91         0.1077     -0.0470     -0.0341      0.0150      0.0033
        92        -0.1613      0.1260      0.1111      0.0542      0.0119
        93         0.0205     -0.1487     -0.0483      0.0248      0.0055
        94         0.5364     -0.1208      0.0967      0.3116      0.0691
        95        -0.8360      0.3959      0.0723      0.8608      0.1914
        96         0.1131     -0.2911     -0.0173      0.0979      0.0218
        97         0.0820      0.2878      0.0351      0.0908      0.0203
        98         0.0007      0.1931     -0.0534      0.0401      0.0090
        99         0.1699     -0.4699      0.0039      0.2497      0.0560
       100        -0.0648      0.1616      0.0949      0.0393      0.0088
       101        -0.2723      0.1259     -0.1913      0.1266      0.0285
       102        -0.1053     -0.0794     -0.0482      0.0197      0.0044
       103        -0.0466     -0.0703     -0.0052      0.0071      0.0016
       104        -0.0190      0.1108     -0.0387      0.0141      0.0032
       105         0.1315     -0.0416     -0.0092      0.0191      0.0043
       106        -0.1483      0.1615      0.0823      0.0548      0.0125
       107        -0.1684     -0.0433     -0.0321      0.0313      0.0071
       108        -0.0620     -0.1589     -0.0083      0.0291      0.0067
       109         0.0604      0.2134      0.0577      0.0525      0.0120
       110        -0.0718      0.2343      0.0047      0.0601      0.0138
       111        -0.0929     -0.0313     -0.0047      0.0096      0.0022
       112         0.0555     -0.0198      0.1503      0.0261      0.0060
       113         0.0472     -0.0446     -0.1072      0.0157      0.0036
       114         0.0078      0.0410     -0.0002      0.0017      0.0004
       115         0.0129     -0.0332      0.0535      0.0041      0.0010
       116         0.0429      0.0211     -0.0166      0.0026      0.0006
       117        -0.0720      0.0929     -0.0878      0.0215      0.0050
       118        -0.1293      0.1020      0.0186      0.0275      0.0064
       119        -0.0326      0.3416     -0.0800      0.1242      0.0290
       120        -0.0280      0.2805      0.0594      0.0830      0.0194
       121        -0.2582     -0.0853     -0.0139      0.0742      0.0174
       122         0.0889     -0.1113      0.1211      0.0350      0.0082
       123        -0.1155     -0.1057     -0.1073      0.0360      0.0085
       124        -0.0691     -0.0871      0.0381      0.0138      0.0032
       125         0.0231     -0.1004      0.0633      0.0146      0.0034
       126         0.0386      0.0576      0.0859      0.0122      0.0029
       127        -0.1545      0.1099      0.0495      0.0384      0.0091
       128        -0.2501      0.0621      0.1373      0.0852      0.0202
       129         0.1115      0.0227      0.1089      0.0248      0.0059
       130        -0.0990      0.1824      0.0894      0.0511      0.0121
       131        -0.1478      0.1890     -0.0847      0.0648      0.0154
       132        -0.0113     -0.0788      0.0259      0.0070      0.0017
       133        -0.0624     -0.0395      0.0276      0.0062      0.0015
       134         0.1369     -0.0860      0.0735      0.0315      0.0075
       135        -0.0830     -0.0975     -0.0233      0.0170      0.0041
       136        -0.0162     -0.2033      0.1127      0.0543      0.0130
       137        -0.0340     -0.0464     -0.0942      0.0122      0.0029
       138        -0.0023     -0.1073      0.0175      0.0118      0.0028
       139         0.0199     -0.1528     -0.2890      0.1073      0.0258
       140        -0.0808      0.2111      0.0633      0.0551      0.0133
       141        -0.2372     -0.2964     -0.1621      0.1704      0.0412
       142         0.0075      0.1059     -0.2100      0.0554      0.0134
       143        -0.0631     -0.1388     -0.0033      0.0233      0.0056
       144         0.1655     -0.1032     -0.1200      0.0525      0.0127
       145         0.1736     -0.5609      0.0738      0.3502      0.0851
       146         0.0258      0.5633     -0.0140      0.3181      0.0775
       147        -0.1700      0.1685      0.0172      0.0576      0.0140
       148        -0.1501      0.0788     -0.1465      0.0502      0.0123
       149         0.3299     -0.0469      0.0189      0.1114      0.0272
       150        -0.1710      0.1836     -0.0555      0.0660      0.0162
 Ground to excited state transition velocity dipole moments (Au):
       state          X           Y           Z        Dip. S.      Osc.
         1        -0.4982      0.0194      0.0002      0.2486      1.6883
         2        -0.0771     -0.0954     -0.0244      0.0156      0.0618
         3        -0.0083     -0.0412      0.0117      0.0019      0.0073
         4        -0.0175      0.0213      0.0097      0.0009      0.0033
         5         0.0063      0.0955      0.0050      0.0092      0.0349
         6         0.0052      0.0117     -0.0011      0.0002      0.0006
         7        -0.1805     -0.0628     -0.0090      0.0366      0.1324
         8        -0.0049      0.1372     -0.0202      0.0192      0.0685
         9        -0.0452     -0.0209     -0.0266      0.0032      0.0110
        10        -0.1832     -0.1807     -0.0014      0.0662      0.2225
        11        -0.0007      0.1009      0.0123      0.0103      0.0327
        12         0.1254     -0.1391     -0.0088      0.0352      0.1104
        13         0.3773     -0.1324      0.0073      0.1600      0.4754
        14        -0.1753      0.0266     -0.0045      0.0315      0.0934
        15         0.0204     -0.1830     -0.0492      0.0363      0.1075
        16         0.1214     -0.0742     -0.0035      0.0202      0.0598
        17         0.1289      0.0074      0.0138      0.0169      0.0490
        18         0.1149      0.1036     -0.0124      0.0241      0.0697
        19        -0.0671     -0.0286     -0.0071      0.0054      0.0151
        20        -0.0169      0.0079     -0.0003      0.0003      0.0010
        21         0.0114      0.1015     -0.0153      0.0107      0.0294
        22        -0.0516      0.0322     -0.0112      0.0038      0.0105
        23        -0.0834     -0.0328     -0.0143      0.0082      0.0225
        24        -0.0099     -0.1427     -0.0122      0.0206      0.0552
        25         0.0022      0.0320     -0.0220      0.0015      0.0040
        26        -0.0905     -0.0838     -0.0013      0.0152      0.0400
        27         0.3769      0.2636     -0.0112      0.2116      0.5537
        28         0.2710     -0.0629      0.0166      0.0777      0.2028
        29         0.1022     -0.0093     -0.0189      0.0109      0.0283
        30         0.0180     -0.0161     -0.0426      0.0024      0.0061
        31        -0.1390      0.1834     -0.0356      0.0542      0.1378
        32        -0.0357      0.0872      0.0285      0.0097      0.0244
        33        -0.0313      0.0483      0.0371      0.0047      0.0117
        34         0.0455      0.0826      0.0423      0.0107      0.0265
        35         0.0310      0.0291      0.0019      0.0018      0.0045
        36         0.0339     -0.0382      0.0207      0.0030      0.0074
        37        -0.0059     -0.0043     -0.0100      0.0002      0.0004
        38         0.0475      0.0033      0.0276      0.0030      0.0072
        39        -0.0467      0.0528      0.0065      0.0050      0.0119
        40        -0.0346      0.0057      0.0050      0.0013      0.0030
        41        -0.0627     -0.0211     -0.0084      0.0044      0.0104
        42         0.0638     -0.0295      0.0046      0.0050      0.0116
        43         0.0304     -0.0152      0.0155      0.0014      0.0033
        44         0.0234     -0.0413      0.0055      0.0023      0.0053
        45         0.0140     -0.0104     -0.0159      0.0006      0.0013
        46        -0.0743      0.1210      0.0076      0.0202      0.0466
        47         0.1068      0.0905      0.0753      0.0253      0.0579
        48        -0.0914     -0.0337      0.0168      0.0098      0.0224
        49        -0.0406      0.0244     -0.0189      0.0026      0.0059
        50         0.2194     -0.3228      0.0017      0.1524      0.3468
        51         0.1230     -0.1494      0.0293      0.0383      0.0865
        52         0.0778     -0.0774     -0.0307      0.0130      0.0293
        53         0.0248     -0.0167     -0.0217      0.0014      0.0031
        54        -0.0056     -0.0068      0.0358      0.0014      0.0030
        55         0.0218     -0.0559      0.0174      0.0039      0.0087
        56         0.0044      0.0413     -0.0196      0.0021      0.0047
        57         0.0566      0.0301      0.0048      0.0041      0.0091
        58         0.0110     -0.0102     -0.0178      0.0005      0.0012
        59         0.0244      0.2101     -0.0094      0.0448      0.0980
        60         0.0399     -0.0477      0.0094      0.0040      0.0086
        61        -0.1492     -0.0930      0.0150      0.0311      0.0677
        62         0.0501      0.0222     -0.0125      0.0032      0.0069
        63         0.0435      0.0240      0.0715      0.0076      0.0164
        64         0.0040      0.0130     -0.0910      0.0085      0.0183
        65        -0.0095     -0.0075      0.0487      0.0025      0.0054
        66        -0.0327     -0.0161      0.0193      0.0017      0.0037
        67        -0.0104      0.1301     -0.0139      0.0172      0.0371
        68         0.0140      0.0270      0.0213      0.0014      0.0029
        69        -0.0192      0.1566     -0.0164      0.0252      0.0537
        70        -0.0913     -0.0953     -0.0129      0.0176      0.0375
        71        -0.0374     -0.0433     -0.0334      0.0044      0.0093
        72        -0.0090      0.0616      0.0170      0.0042      0.0088
        73        -0.0909     -0.0745      0.0152      0.0140      0.0298
        74        -0.0336      0.0186      0.0098      0.0016      0.0033
        75        -0.0110      0.0204     -0.0236      0.0011      0.0023
        76         0.0149     -0.0208     -0.0399      0.0023      0.0047
        77        -0.0087     -0.0612     -0.0045      0.0038      0.0081
        78        -0.0103      0.0164      0.0095      0.0005      0.0010
        79        -0.0217     -0.0341     -0.0097      0.0017      0.0036
        80         0.0447     -0.0139     -0.0031      0.0022      0.0046
        81        -0.0160      0.0144     -0.0096      0.0006      0.0012
        82         0.0106      0.0141      0.0241      0.0009      0.0019
        83        -0.0107      0.0313     -0.0458      0.0032      0.0066
        84         0.0507     -0.0207      0.0035      0.0030      0.0062
        85         0.0082      0.0313     -0.0072      0.0011      0.0023
        86         0.0010     -0.0038     -0.0269      0.0007      0.0015
        87         0.0246      0.0111     -0.0107      0.0008      0.0017
        88        -0.0103     -0.0051     -0.0229      0.0007      0.0013
        89         0.0557      0.0204      0.0164      0.0038      0.0077
        90        -0.0144      0.0005     -0.0745      0.0058      0.0117
        91        -0.0330      0.0145      0.0120      0.0014      0.0029
        92         0.0555     -0.0423     -0.0364      0.0062      0.0125
        93        -0.0047      0.0490      0.0149      0.0026      0.0053
        94        -0.1808      0.0407     -0.0315      0.0353      0.0708
        95         0.2810     -0.1321     -0.0245      0.0970      0.1940
        96        -0.0361      0.0979      0.0055      0.0109      0.0218
        97        -0.0257     -0.0977     -0.0113      0.0103      0.0206
        98        -0.0028     -0.0654      0.0149      0.0045      0.0090
        99        -0.0564      0.1570      0.0015      0.0278      0.0552
       100         0.0249     -0.0538     -0.0281      0.0043      0.0085
       101         0.0883     -0.0411      0.0617      0.0133      0.0263
       102         0.0361      0.0261      0.0168      0.0023      0.0045
       103         0.0138      0.0251      0.0018      0.0008      0.0016
       104         0.0059     -0.0367      0.0109      0.0015      0.0029
       105        -0.0443      0.0135      0.0039      0.0022      0.0042
       106         0.0490     -0.0547     -0.0266      0.0061      0.0119
       107         0.0586      0.0154      0.0107      0.0038      0.0074
       108         0.0219      0.0561      0.0036      0.0036      0.0071
       109        -0.0197     -0.0739     -0.0154      0.0061      0.0118
       110         0.0223     -0.0796     -0.0009      0.0068      0.0133
       111         0.0308      0.0106      0.0030      0.0011      0.0021
       112        -0.0166      0.0060     -0.0496      0.0028      0.0053
       113        -0.0142      0.0140      0.0334      0.0015      0.0029
       114        -0.0031     -0.0148     -0.0007      0.0002      0.0004
       115        -0.0040      0.0112     -0.0195      0.0005      0.0010
       116        -0.0130     -0.0081      0.0090      0.0003      0.0006
       117         0.0238     -0.0322      0.0308      0.0026      0.0049
       118         0.0435     -0.0358     -0.0048      0.0032      0.0061
       119         0.0123     -0.1164      0.0264      0.0144      0.0274
       120         0.0097     -0.0964     -0.0194      0.0098      0.0186
       121         0.0911      0.0298      0.0052      0.0092      0.0175
       122        -0.0322      0.0380     -0.0394      0.0040      0.0077
       123         0.0388      0.0347      0.0362      0.0040      0.0076
       124         0.0244      0.0307     -0.0129      0.0017      0.0032
       125        -0.0122      0.0328     -0.0216      0.0017      0.0032
       126        -0.0100     -0.0205     -0.0275      0.0013      0.0024
       127         0.0541     -0.0414     -0.0161      0.0049      0.0092
       128         0.0877     -0.0227     -0.0433      0.0101      0.0189
       129        -0.0395     -0.0071     -0.0335      0.0027      0.0051
       130         0.0353     -0.0632     -0.0286      0.0061      0.0113
       131         0.0518     -0.0666      0.0282      0.0079      0.0148
       132         0.0035      0.0306     -0.0112      0.0011      0.0020
       133         0.0226      0.0131     -0.0079      0.0007      0.0014
       134        -0.0477      0.0301     -0.0235      0.0037      0.0069
       135         0.0307      0.0367      0.0089      0.0024      0.0044
       136         0.0069      0.0751     -0.0358      0.0070      0.0129
       137         0.0131      0.0173      0.0308      0.0014      0.0026
       138         0.0029      0.0388     -0.0047      0.0015      0.0028
       139        -0.0059      0.0560      0.0940      0.0120      0.0222
       140         0.0311     -0.0779     -0.0189      0.0074      0.0136
       141         0.0852      0.1087      0.0573      0.0224      0.0411
       142         0.0001     -0.0372      0.0682      0.0060      0.0111
       143         0.0231      0.0489      0.0013      0.0029      0.0054
       144        -0.0594      0.0383      0.0405      0.0066      0.0121
       145        -0.0611      0.2054     -0.0264      0.0466      0.0853
       146        -0.0087     -0.2039      0.0058      0.0417      0.0761
       147         0.0637     -0.0620     -0.0054      0.0079      0.0145
       148         0.0534     -0.0265      0.0488      0.0059      0.0108
       149        -0.1229      0.0177     -0.0084      0.0155      0.0282
       150         0.0632     -0.0654      0.0211      0.0087      0.0158
 Ground to excited state transition magnetic dipole moments (Au):
       state          X           Y           Z
         1         0.0498     -0.3106      1.3421
         2         0.0589      0.0344     -0.3252
         3         0.1002     -0.0923      0.3589
         4         0.1300     -0.0714      0.2971
         5        -0.1377     -0.1033      0.4810
         6         0.1615      0.3415     -0.0539
         7         0.0212      0.1299     -1.0437
         8         0.0301     -0.1756     -1.7037
         9         0.0477     -0.1405     -1.7961
        10         0.0212      0.3564      0.1256
        11         0.0103      0.0116     -1.1367
        12         0.0118      0.1720      0.2772
        13        -0.0019      0.8124     -1.1485
        14        -0.1479     -0.1797     -0.1690
        15         0.1418      0.1899     -2.7703
        16        -0.2291     -0.2898     -0.3863
        17         0.0215     -0.1612      1.7481
        18         0.1757     -0.3029     -1.9666
        19        -0.0558      0.0747     -0.1919
        20        -0.1307      0.1129      0.2601
        21        -0.0931     -0.1925     -0.8973
        22         0.0695     -0.1019     -1.5447
        23        -0.0105     -0.0718     -0.7490
        24         0.0123     -0.0941     -0.5253
        25         0.1147      0.0190     -0.4869
        26         0.0025      0.0872      0.7668
        27         0.1102     -0.2650     -2.4914
        28         0.0866     -0.1324      2.7349
        29        -0.2937      0.2488      0.4597
        30        -0.1031      0.1459      0.5025
        31        -0.1718     -0.3580     -0.6083
        32         0.5916     -0.0470      0.3927
        33        -0.2389     -0.2281      0.7500
        34        -0.3229     -0.0055      2.0276
        35         0.3906     -0.2535      0.9421
        36         0.0605     -0.0380      0.2141
        37         0.0485      0.0492      0.1863
        38         0.2967      0.3938      0.0394
        39        -0.1573     -0.2466      0.1428
        40        -0.7121     -0.2976      0.1946
        41         0.1235     -0.0166      0.2179
        42        -0.4936     -0.1717      0.0516
        43         0.1530     -0.0619      0.1217
        44         0.2176      0.1442      0.0927
        45        -0.0633     -0.1446     -0.1102
        46         0.0108     -0.2159      0.5630
        47        -0.1346     -0.0941      2.4124
        48        -0.1727     -0.0791     -1.7544
        49         0.0553     -0.7788     -0.2959
        50         0.0678      0.3681     -0.9102
        51         0.2771      0.0826      0.1722
        52         0.1931     -0.0072     -0.0516
        53        -0.3133      0.1362      0.2006
        54         0.0418     -0.1622      0.2031
        55        -0.0400      0.2568      0.0938
        56         0.1071     -0.5037      0.2176
        57         0.0413      0.0225      1.6690
        58         0.1156      0.3675      0.3521
        59        -0.0118     -0.2157     -1.6855
        60        -0.2091      0.1103      1.4234
        61         0.2559      0.1692     -1.7094
        62         0.3054     -0.3161      0.6305
        63         0.0857     -0.2464      0.0984
        64        -0.0289     -0.7657     -0.4507
        65        -0.2472     -0.7199     -0.3090
        66         0.2343      0.1166      0.4779
        67         0.0659     -0.2994     -0.2612
        68         0.1372     -0.1068      0.0486
        69        -0.0234     -0.0663     -1.7047
        70         0.0884     -0.1690     -1.0843
        71        -0.1779     -0.2450     -0.4700
        72         0.0041     -0.0199      0.3814
        73         0.1787      0.3559     -0.7974
        74        -0.1286      0.6420     -0.1556
        75        -0.2637      0.2666     -0.0771
        76        -0.2336      0.0416     -0.2740
        77        -0.0242      0.2631      0.4766
        78         0.1182     -0.0553      0.1037
        79         0.0462      0.8575      0.0487
        80        -0.0906      0.0394      0.2030
        81         0.0267     -0.1454     -0.0864
        82        -0.0901      0.0689     -0.0536
        83         0.1774      0.3254      0.3747
        84         0.1400     -0.0966     -0.2417
        85        -0.1861      0.4079     -0.0277
        86        -0.5873      0.3113     -0.0236
        87        -0.0133      0.0088      0.1498
        88         0.3740     -0.2381     -0.1472
        89        -0.2488     -0.1106      0.1060
        90         0.1803     -0.0678      0.1433
        91        -0.1306      0.0154     -0.4912
        92        -0.1350      0.4059      0.1122
        93         0.2522      0.3377      0.3087
        94        -0.1677      0.0479      1.1941
        95         0.4733      0.1416     -0.8566
        96        -0.1343      0.0030     -0.8739
        97        -0.1348     -0.0391      0.8117
        98        -0.2626      0.4419      0.2651
        99         0.1155      0.8075     -0.6438
       100        -0.0062     -0.0285      0.6967
       101         0.1818      0.4191     -0.4442
       102        -0.2802     -0.4407     -0.6003
       103         0.3522      0.6369      0.1221
       104         0.0134      0.9713      0.1678
       105         0.4981      0.5938     -0.0939
       106        -0.0165      0.0396     -0.0453
       107        -0.1431      0.4587      0.1001
       108        -0.2914     -0.1979     -0.2771
       109         0.0616      0.4540      0.2254
       110         0.2711     -0.0490      0.1035
       111         0.0114      0.1930      0.0497
       112         0.2667      0.0542      0.1007
       113         0.1284     -0.1389      0.1339
       114        -0.7332      0.2461     -0.0627
       115         0.1064     -0.1791      0.2782
       116         0.5739      0.4530      0.3400
       117         0.4073     -0.1227      0.4778
       118         0.1405     -0.0234     -0.3073
       119        -0.0910      0.0596     -0.3021
       120        -0.2463      0.0403      0.7425
       121        -0.5222      0.2124      0.2070
       122        -0.5077     -0.0506      0.0195
       123         0.1495      0.5023      0.8638
       124         0.1649      0.1618      0.1709
       125         0.4549     -0.2686      0.2880
       126         0.3163      0.6152     -0.1254
       127         0.5767     -0.3373     -0.2855
       128         0.0113     -0.3374      0.3931
       129        -0.0512      0.3985     -0.2184
       130        -0.6568     -0.6064     -0.1001
       131        -0.1107      0.3114     -0.6355
       132        -0.3453     -0.3669     -0.3325
       133         0.0930      0.4018      0.5019
       134         0.8932      0.1610     -0.2303
[...]
    38  H    0.000000   0.000000   0.000000   0.403688  -0.028406   0.000000
    39  H    0.000000  -0.000000   0.000000  -0.041267   0.415742   0.000000
    40  H   -0.000000  -0.000000  -0.000000  -0.033855   0.411640  -0.000000
    41  H   -0.000000   0.000000   0.000000  -0.036293   0.415388  -0.000000
    42  H    0.000018  -0.000047   0.001529   0.000002  -0.000000   0.417400
    43  H   -0.000250   0.002140   0.004339   0.000000  -0.000000   0.397028
    44  H   -0.000006   0.000014   0.000246   0.000000   0.000000  -0.047687
    45  H    0.000001  -0.000023  -0.000030   0.000000  -0.000000  -0.041705
    46  H    0.000062   0.000216   0.003518  -0.000000   0.000000  -0.025714
              25         26         27         28         29         30
     1  C    0.002900   0.432911  -0.046919  -0.003744  -0.000040   0.000001
     2  C    0.000629  -0.018530   0.418406  -0.016922   0.000014  -0.000000
     3  C   -0.012022   0.001537  -0.065241   0.431913   0.000001   0.000000
     4  C    0.006719   0.004404   0.003678  -0.071517  -0.000000   0.000000
     5  C    0.000029  -0.064647   0.000688   0.004498   0.000263   0.000014
     6  S   -0.000161   0.000018   0.000024  -0.004984   0.000000   0.000000
     7  C    0.001032   0.000004  -0.000015   0.000324   0.000000   0.000000
     8  C    0.000594   0.000002  -0.000220   0.000141   0.000000   0.000000
     9  N   -0.029961   0.000001  -0.001231   0.002432   0.000000  -0.000000
    10  S   -0.000658   0.002812  -0.014269   0.000018  -0.004454  -0.000151
    11  C   -0.000021  -0.000694  -0.000532   0.000004  -0.072869   0.014601
    12  C    0.000003   0.000943   0.000350   0.000007   0.022646  -0.004948
    13  N    0.000004  -0.005215   0.000080   0.000001  -0.000011   0.000018
    14  C   -0.000001  -0.000020  -0.000082   0.000000   0.463567  -0.065071
    15  C   -0.000000   0.000003   0.000008   0.000000  -0.059703   0.461614
    16  C    0.000000  -0.000007  -0.000004  -0.000000   0.012754  -0.059405
    17  C    0.000000   0.000119   0.000052   0.000000  -0.006750   0.013712
    18  C   -0.000012   0.000000   0.000003  -0.000048  -0.000000   0.000000
    19  C    0.000022  -0.000000   0.000000   0.000000   0.000000   0.000000
    20  C    0.000502   0.000000  -0.000000   0.000000  -0.000000   0.000000
    21  C   -0.005661   0.000000   0.000125   0.000032  -0.000000   0.000000
    22  C    0.000000   0.003217   0.000244   0.000082   0.000010  -0.000002
    23  C    0.000000  -0.003605  -0.000063  -0.000025  -0.000001   0.000000
    24  C    0.258398   0.000010  -0.001890   0.000654   0.000000   0.000000
    25  C    5.004011  -0.000002  -0.002413  -0.000259  -0.000000  -0.000000
    26  H   -0.000002   0.449407   0.003755   0.003588  -0.000001   0.000000
    27  H   -0.002413   0.003755   0.525582   0.004727  -0.000011   0.000000
    28  H   -0.000259   0.003588   0.004727   0.470869  -0.000000   0.000000
    29  H   -0.000000  -0.000001  -0.000011  -0.000000   0.475047  -0.006422
    30  H   -0.000000   0.000000   0.000000   0.000000  -0.006422   0.481143
    31  H    0.000000  -0.000000  -0.000000   0.000000  -0.000017  -0.006435
    32  H    0.000000  -0.000005   0.000000   0.000000  -0.000011  -0.000005
    33  H   -0.000001   0.000000   0.000000   0.000001   0.000000   0.000000
    34  H    0.000001   0.000000  -0.000000  -0.000000   0.000000   0.000000
    35  H    0.000004   0.000000   0.000000   0.000000  -0.000000   0.000000
    36  H   -0.003071  -0.000000  -0.000000   0.000001   0.000000   0.000000
    37  H   -0.000000   0.000739   0.000060  -0.000002  -0.000000   0.000000
    38  H    0.000000   0.000339  -0.000001   0.000000   0.000002  -0.000001
    39  H    0.000000   0.000056   0.000000   0.000001   0.000000  -0.000000
    40  H   -0.000000   0.000223   0.000004  -0.000000  -0.000000   0.000000
    41  H    0.000000  -0.000088  -0.000010   0.000010   0.000000  -0.000000
    42  H   -0.035720  -0.000068  -0.007324   0.000142   0.000000  -0.000000
    43  H   -0.027883   0.000001   0.000820  -0.000007  -0.000000   0.000000
    44  H    0.422416   0.000003   0.001809  -0.000072   0.000000  -0.000000
    45  H    0.416491  -0.000000  -0.000070   0.000002   0.000000  -0.000000
    46  H    0.404572  -0.000000   0.000341   0.000011   0.000000  -0.000000
              31         32         33         34         35         36
     1  C   -0.000002   0.000007   0.000000  -0.000000  -0.000000   0.000000
     2  C    0.000000   0.000004   0.000001   0.000000   0.000000  -0.000003
     3  C   -0.000000  -0.000000  -0.000012  -0.000000  -0.000000   0.000013
     4  C   -0.000000   0.000000   0.000223   0.000010   0.000021  -0.000587
     5  C    0.000022  -0.000637  -0.000000   0.000000   0.000000   0.000000
     6  S   -0.000000  -0.000000  -0.003913  -0.000132   0.000009  -0.000180
     7  C   -0.000000   0.000000  -0.071221   0.014821  -0.003542   0.007767
     8  C   -0.000000   0.000000   0.021555  -0.005226   0.013899  -0.049122
     9  N    0.000000  -0.000000  -0.000051   0.000022  -0.000093  -0.003485
    10  S    0.000008  -0.000075   0.000000   0.000000  -0.000000   0.000000
    11  C   -0.003767   0.008987  -0.000000   0.000000  -0.000000   0.000000
    12  C    0.014191  -0.051164   0.000000  -0.000000   0.000000   0.000000
    13  N   -0.000080  -0.002914   0.000000  -0.000000  -0.000000   0.000000
    14  C    0.011524  -0.002397  -0.000000   0.000000   0.000000   0.000000
    15  C   -0.056227   0.007498   0.000000  -0.000000   0.000000  -0.000000
    16  C    0.453763  -0.031004  -0.000000   0.000000  -0.000000   0.000000
    17  C   -0.058164   0.439677   0.000000  -0.000000   0.000000  -0.000000
    18  C   -0.000000   0.000000   0.462175  -0.065536   0.011256  -0.001977
    19  C    0.000000   0.000000  -0.059168   0.462340  -0.055690   0.006880
    20  C   -0.000000  -0.000000   0.012457  -0.059902   0.452903  -0.028126
    21  C    0.000000   0.000000  -0.006320   0.013991  -0.057334   0.435933
    22  C   -0.000005   0.002904   0.000000   0.000000   0.000000   0.000000
    23  C    0.000003  -0.001767  -0.000000  -0.000000  -0.000000  -0.000000
    24  C    0.000000  -0.000000   0.000015  -0.000004  -0.000006   0.004671
    25  C    0.000000   0.000000  -0.000001   0.000001   0.000004  -0.003071
    26  H   -0.000000  -0.000005   0.000000   0.000000   0.000000  -0.000000
    27  H   -0.000000   0.000000   0.000000  -0.000000   0.000000  -0.000000
    28  H    0.000000   0.000000   0.000001  -0.000000   0.000000   0.000001
    29  H   -0.000017  -0.000011   0.000000   0.000000  -0.000000   0.000000
    30  H   -0.006435  -0.000005   0.000000   0.000000   0.000000   0.000000
    31  H    0.478654  -0.005450   0.000000  -0.000000  -0.000000   0.000000
    32  H   -0.005450   0.451322   0.000000  -0.000000   0.000000  -0.000000
    33  H    0.000000   0.000000   0.473828  -0.006540  -0.000018  -0.000007
    34  H   -0.000000  -0.000000  -0.006540   0.480724  -0.006445   0.000001
    35  H   -0.000000   0.000000  -0.000018  -0.006445   0.477916  -0.005331
    36  H    0.000000  -0.000000  -0.000007   0.000001  -0.005331   0.445800
    37  H   -0.000001   0.000435   0.000000  -0.000000   0.000000  -0.000000
    38  H   -0.000010  -0.001686  -0.000000  -0.000000  -0.000000  -0.000000
    39  H    0.000000   0.000079   0.000000  -0.000000   0.000000  -0.000000
    40  H    0.000000   0.000537   0.000000   0.000000   0.000000  -0.000000
    41  H   -0.000000   0.000020   0.000000  -0.000000  -0.000000   0.000000
    42  H    0.000000  -0.000000  -0.000001   0.000000  -0.000001   0.000472
    43  H    0.000000   0.000000   0.000002  -0.000000  -0.000020  -0.001761
    44  H    0.000000  -0.000000   0.000000  -0.000000  -0.000001   0.000103
    45  H    0.000000   0.000000   0.000000  -0.000000   0.000000   0.000133
    46  H   -0.000000  -0.000000  -0.000000   0.000000   0.000003   0.000595
              37         38         39         40         41         42
     1  C    0.021205  -0.000580  -0.000263   0.000841   0.003383   0.000618
     2  C    0.002804   0.000000  -0.000031   0.000003   0.000391  -0.007399
     3  C   -0.000169   0.000002   0.000010  -0.000005   0.000039   0.016252
     4  C    0.000050  -0.000000   0.000000   0.000000  -0.000000  -0.018542
     5  C   -0.037250   0.008941   0.000407  -0.001869  -0.000365  -0.000155
     6  S    0.000000  -0.000000  -0.000000   0.000000  -0.000000   0.000173
     7  C    0.000000  -0.000000   0.000000   0.000000   0.000000  -0.000076
     8  C    0.000000  -0.000000   0.000000   0.000000  -0.000000   0.006845
     9  N   -0.000000  -0.000000  -0.000000   0.000000  -0.000000  -0.030614
    10  S   -0.000006  -0.000365   0.000016  -0.000025  -0.000137   0.000918
    11  C   -0.000548  -0.001026  -0.000027   0.000458  -0.000198   0.000017
    12  C    0.008321  -0.021072   0.000038   0.000667  -0.001761  -0.000003
    13  N   -0.018122  -0.018165   0.005408  -0.000764   0.000164   0.000002
    14  C   -0.000043   0.000326  -0.000002  -0.000077   0.000025   0.000000
    15  C    0.000019  -0.000278   0.000001   0.000049  -0.000007  -0.000000
    16  C   -0.000082   0.002853  -0.000008  -0.000021   0.000037   0.000000
    17  C    0.001432   0.004270   0.000008   0.002552   0.000414  -0.000000
    18  C    0.000000  -0.000000  -0.000000   0.000000   0.000000  -0.000046
    19  C    0.000000   0.000000   0.000000  -0.000000  -0.000000   0.000018
    20  C   -0.000000   0.000000  -0.000000  -0.000000   0.000000  -0.000047
    21  C   -0.000000   0.000000   0.000000  -0.000000   0.000000   0.001529
    22  C    0.399765   0.403688  -0.041267  -0.033855  -0.036293   0.000002
    23  C   -0.029242  -0.028406   0.415742   0.411640   0.415388  -0.000000
    24  C    0.000001   0.000000   0.000000  -0.000000  -0.000000   0.417400
    25  C   -0.000000   0.000000   0.000000  -0.000000   0.000000  -0.035720
    26  H    0.000739   0.000339   0.000056   0.000223  -0.000088  -0.000068
    27  H    0.000060  -0.000001   0.000000   0.000004  -0.000010  -0.007324
    28  H   -0.000002   0.000000   0.000001  -0.000000   0.000010   0.000142
    29  H   -0.000000   0.000002   0.000000  -0.000000   0.000000   0.000000
    30  H    0.000000  -0.000001  -0.000000   0.000000  -0.000000  -0.000000
    31  H   -0.000001  -0.000010   0.000000   0.000000  -0.000000   0.000000
    32  H    0.000435  -0.001686   0.000079   0.000537   0.000020  -0.000000
    33  H    0.000000  -0.000000   0.000000   0.000000   0.000000  -0.000001
    34  H   -0.000000  -0.000000  -0.000000   0.000000  -0.000000   0.000000
    35  H    0.000000  -0.000000   0.000000   0.000000  -0.000000  -0.000001
    36  H   -0.000000  -0.000000  -0.000000  -0.000000   0.000000   0.000472
    37  H    0.505747  -0.019595  -0.001319   0.004164  -0.004505  -0.000001
    38  H   -0.019595   0.504869  -0.001470  -0.004717   0.004094  -0.000000
    39  H   -0.001319  -0.001470   0.511901  -0.019654  -0.020096  -0.000000
    40  H    0.004164  -0.004717  -0.019654   0.515464  -0.023134   0.000000
    41  H   -0.004505   0.004094  -0.020096  -0.023134   0.514402  -0.000000
    42  H   -0.000001  -0.000000  -0.000000   0.000000  -0.000000   0.487702
    43  H   -0.000000  -0.000000  -0.000000   0.000000   0.000000  -0.011282
    44  H   -0.000000   0.000000  -0.000000  -0.000000   0.000000  -0.002352
    45  H   -0.000000  -0.000000  -0.000000   0.000000   0.000000  -0.001783
    46  H    0.000000   0.000000  -0.000000  -0.000000  -0.000000   0.003390
              43         44         45         46
     1  C   -0.000010   0.001414  -0.000216  -0.000018
     2  C    0.001671   0.002699   0.000383  -0.000647
     3  C   -0.001482  -0.006401   0.000072   0.001206
     4  C    0.007523   0.004491  -0.000066  -0.001632
     5  C    0.000001  -0.000088   0.000075  -0.000008
     6  S   -0.000330  -0.000148   0.000018  -0.000013
     7  C   -0.001098  -0.000085  -0.000004   0.000491
     8  C   -0.017307  -0.001426   0.000248  -0.000943
     9  N   -0.017218   0.001563   0.005105  -0.001334
    10  S    0.000002   0.000638   0.000211   0.000035
    11  C   -0.000000  -0.000005   0.000000   0.000001
    12  C    0.000000   0.000002  -0.000000  -0.000000
    13  N    0.000000   0.000002   0.000000  -0.000000
    14  C   -0.000000  -0.000001   0.000001   0.000000
    15  C    0.000000  -0.000000  -0.000000  -0.000000
    16  C   -0.000000   0.000000   0.000000   0.000000
    17  C    0.000000  -0.000000  -0.000000  -0.000000
    18  C    0.000302   0.000031  -0.000003  -0.000103
    19  C   -0.000250  -0.000006   0.000001   0.000062
    20  C    0.002140   0.000014  -0.000023   0.000216
    21  C    0.004339   0.000246  -0.000030   0.003518
    22  C    0.000000   0.000000   0.000000  -0.000000
    23  C   -0.000000   0.000000  -0.000000   0.000000
    24  C    0.397028  -0.047687  -0.041705  -0.025714
    25  C   -0.027883   0.422416   0.416491   0.404572
    26  H    0.000001   0.000003  -0.000000  -0.000000
    27  H    0.000820   0.001809  -0.000070   0.000341
    28  H   -0.000007  -0.000072   0.000002   0.000011
    29  H   -0.000000   0.000000   0.000000   0.000000
    30  H    0.000000  -0.000000  -0.000000  -0.000000
    31  H    0.000000   0.000000   0.000000  -0.000000
    32  H    0.000000  -0.000000   0.000000  -0.000000
    33  H    0.000002   0.000000   0.000000  -0.000000
    34  H   -0.000000  -0.000000  -0.000000   0.000000
    35  H   -0.000020  -0.000001   0.000000   0.000003
    36  H   -0.001761   0.000103   0.000133   0.000595
    37  H   -0.000000  -0.000000  -0.000000   0.000000
    38  H   -0.000000   0.000000  -0.000000   0.000000
    39  H   -0.000000  -0.000000  -0.000000  -0.000000
    40  H    0.000000  -0.000000   0.000000  -0.000000
    41  H    0.000000   0.000000   0.000000  -0.000000
    42  H   -0.011282  -0.002352  -0.001783   0.003390
    43  H    0.491794   0.003362  -0.000538  -0.004837
    44  H    0.003362   0.510288  -0.020539  -0.021699
    45  H   -0.000538  -0.020539   0.506788  -0.017393
    46  H   -0.004837  -0.021699  -0.017393   0.503380
 Mulliken charges:
               1
     1  C   -0.430359
     2  C   -0.007828
     3  C   -0.421574
     4  C    0.241780
     5  C    0.269060
     6  S    0.076145
     7  C   -0.034915
     8  C    0.227771
     9  N    0.040494
    10  S    0.039690
    11  C   -0.022047
    12  C    0.215055
    13  N    0.033100
    14  C   -0.188775
    15  C   -0.171791
    16  C   -0.126805
    17  C   -0.324647
    18  C   -0.183914
    19  C   -0.166599
    20  C   -0.133798
    21  C   -0.326753
    22  C   -0.164073
    23  C   -0.394764
    24  C   -0.204113
    25  C   -0.400479
    26  H    0.188791
    27  H    0.179537
    28  H    0.178122
    29  H    0.175988
    30  H    0.171338
    31  H    0.171992
    32  H    0.185647
    33  H    0.176994
    34  H    0.171875
    35  H    0.172469
    36  H    0.191283
    37  H    0.166144
    38  H    0.167986
    39  H    0.150470
    40  H    0.147520
    41  H    0.148226
    42  H    0.179932
    43  H    0.175036
    44  H    0.151429
    45  H    0.152842
    46  H    0.156519
 Sum of Mulliken charges =   1.00000
 Mulliken charges with hydrogens summed into heavy atoms:
               1
     1  C   -0.241568
     2  C    0.171709
     3  C   -0.243452
     4  C    0.241780
     5  C    0.269060
     6  S    0.076145
     7  C   -0.034915
     8  C    0.227771
     9  N    0.040494
    10  S    0.039690
    11  C   -0.022047
    12  C    0.215055
    13  N    0.033100
    14  C   -0.012787
    15  C   -0.000453
    16  C    0.045188
    17  C   -0.138999
    18  C   -0.006919
    19  C    0.005276
    20  C    0.038671
    21  C   -0.135470
    22  C    0.170057
    23  C    0.051451
    24  C    0.150855
    25  C    0.060312
 Electronic spatial extent (au):  <R**2>=          15557.5032
 Charge=              1.0000 electrons
 Dipole moment (field-independent basis, Debye):
    X=              1.0982    Y=              0.1593    Z=              1.2588  Tot=              1.6781
 Quadrupole moment (field-independent basis, Debye-Ang):
   XX=            -50.7703   YY=           -123.9726   ZZ=           -165.3105
   XY=             15.4515   XZ=              1.6487   YZ=              0.8989
 Traceless Quadrupole moment (field-independent basis, Debye-Ang):
   XX=             62.5808   YY=            -10.6215   ZZ=            -51.9594
   XY=             15.4515   XZ=              1.6487   YZ=              0.8989
 Octapole moment (field-independent basis, Debye-Ang**2):
  XXX=              6.8342  YYY=             -2.5272  ZZZ=              4.0115  XYY=             27.7092
  XXY=             -0.5672  XXZ=             -6.8132  XZZ=              2.0363  YZZ=              3.2977
  YYZ=              4.9409  XYZ=             29.9728
 Hexadecapole moment (field-independent basis, Debye-Ang**3):
 XXXX=         -13414.6540 YYYY=          -2290.0554 ZZZZ=           -324.3563 XXXY=            106.3818
 XXXZ=            161.4474 YYYX=             85.1118 YYYZ=             17.6328 ZZZX=             -0.1257
 ZZZY=             -3.1242 XXYY=          -2821.1055 XXZZ=          -3397.7962 YYZZ=           -493.8171
 XXYZ=             22.3575 YYXZ=            -11.9424 ZZXY=             36.2468
 N-N= 2.285613864415D+03 E-N=-8.580921876116D+03  KE= 1.712283413671D+03
 Unable to Open any file for archive entry.
 1\1\GINC-CN02\SP\RwB97XD TD-FC\def2TZVP\C21H21N2S2(1+)\2100011873\03-N
 ov-2023\0\\# td=(nstates=150) wB97XD/def2TZVP scrf(smd, solvent=ethano
 l)\\A-2\\1,1\C,0,1.185932,1.124188,0.259065\C,0,-0.064042,0.518894,0.1
 84736\C,0,-1.255062,1.232433,0.206071\C,0,-2.576908,0.775971,0.134368\
 C,0,2.392634,0.431471,0.171283\S,0,-3.827667,1.970009,-0.187075\C,0,-5
 .077877,0.744792,-0.134775\C,0,-4.509195,-0.50864,0.113846\N,0,-3.1183
 72,-0.458179,0.279721\S,0,2.505198,-1.300121,-0.125106\C,0,4.260315,-1
 .225762,-0.102553\C,0,4.688784,0.08701,0.119416\N,0,3.627512,0.981655,
 0.287411\C,0,5.159317,-2.267461,-0.279503\C,0,6.517913,-1.973596,-0.23
 7257\C,0,6.95394,-0.663841,-0.025333\C,0,6.051566,0.378213,0.153458\C,
 0,-6.446804,0.904176,-0.304215\C,0,-7.251229,-0.226106,-0.226408\C,0,-
 6.689747,-1.482485,0.014868\C,0,-5.320051,-1.640504,0.18625\C,0,3.8471
 44,2.415669,0.55458\C,0,3.911762,3.249637,-0.717632\C,0,-2.369369,-1.6
 60308,0.692423\C,0,-1.918854,-2.522991,-0.47911\H,0,1.228852,2.199196,
 0.376562\H,0,-0.096636,-0.556945,0.072235\H,0,-1.165193,2.31437,0.2241
 99\H,0,4.813961,-3.279951,-0.448352\H,0,7.240415,-2.768718,-0.37396\H,
 0,8.015538,-0.449707,-0.002068\H,0,6.406822,1.388085,0.306065\H,0,-6.8
 75736,1.880738,-0.491225\H,0,-8.32188,-0.129159,-0.357431\H,0,-7.33032
 6,-2.354283,0.06736\H,0,-4.901973,-2.621689,0.363736\H,0,3.048585,2.75
 4296,1.212168\H,0,4.77271,2.494849,1.122044\H,0,4.082538,4.295496,-0.4
 52515\H,0,4.728911,2.924468,-1.364544\H,0,2.978199,3.187215,-1.279982\
 H,0,-1.531667,-1.329317,1.302601\H,0,-3.027666,-2.224702,1.351768\H,0,
 -1.2761,-1.972556,-1.168349\H,0,-1.359149,-3.379171,-0.096017\H,0,-2.7
 75672,-2.899604,-1.040801\\Version=ES64L-G16RevC.02\State=1-A\HF=-1718
 .6876853\RMSD=4.539e-09\PG=C01 [X(C21H21N2S2)]\\@
 The archive entry for this job was punched.


      HUMANKIND PERIODICALLY GOES THROUGH A SPEEDUP OF ITS AFFAIRS, 
      THEREBY EXPERIENCING THE RACE BETWEEN THE RENEWABLE VITALITY
      OF THE LIVING, AND THE BECKONING VITIATION OF DECADENCE.
      IN THIS PERIODIC RACE, ANY PAUSE BECOMES A LUXURY.
      ONLY THEN CAN ONE REFLECT THAT ALL IS PERMITTED;
      ALL IS POSSIBLE.

                              -- THE APOCRYPHA OF MUAD'DIB
                                 CHILDREN OF DUNE, BY FRANK HERBERT
 Job cpu time:       3 days 21 hours 26 minutes 48.8 seconds.
 Elapsed time:       0 days  3 hours  2 minutes 19.8 seconds.
 File lengths (MBytes):  RWF=  33264 Int=      0 D2E=      0 Chk=   3408 Scr=     32
 Normal termination of Gaussian 16 at Fri Nov  3 23:31:16 2023.
