 Entering Gaussian System, Link 0=g16
 Initial command:
 /nfs-share/home/2100011873/Gaussian16_AVX2/g16/l1.exe "/nfs-share/home/2100011873/GaussTmp/Gau-223855.inp" -scrdir="/nfs-share/home/2100011873/GaussTmp/"
 Entering Link 1 = /nfs-share/home/2100011873/Gaussian16_AVX2/g16/l1.exe PID=    223856.
  
 Copyright (c) 1988-2021, Gaussian, Inc.  All Rights Reserved.
  
 This is part of the Gaussian(R) 16 program.  It is based on
 the Gaussian(R) 09 system (copyright 2009, Gaussian, Inc.),
 the Gaussian(R) 03 system (copyright 2003, Gaussian, Inc.),
 the Gaussian(R) 98 system (copyright 1998, Gaussian, Inc.),
 the Gaussian(R) 94 system (copyright 1995, Gaussian, Inc.),
 the Gaussian 92(TM) system (copyright 1992, Gaussian, Inc.),
 the Gaussian 90(TM) system (copyright 1990, Gaussian, Inc.),
 the Gaussian 88(TM) system (copyright 1988, Gaussian, Inc.),
 the Gaussian 86(TM) system (copyright 1986, Carnegie Mellon
 University), and the Gaussian 82(TM) system (copyright 1983,
 Carnegie Mellon University). Gaussian is a federally registered
 trademark of Gaussian, Inc.
  
 This software contains proprietary and confidential information,
 including trade secrets, belonging to Gaussian, Inc.
  
 This software is provided under written license and may be
 used, copied, transmitted, or stored only in accord with that
 written license.
  
 The following legend is applicable only to US Government
 contracts under FAR:
  
                    RESTRICTED RIGHTS LEGEND
  
 Use, reproduction and disclosure by the US Government is
 subject to restrictions as set forth in subparagraphs (a)
 and (c) of the Commercial Computer Software - Restricted
 Rights clause in FAR 52.227-19.
  
 Gaussian, Inc.
 340 Quinnipiac St., Bldg. 40, Wallingford CT 06492
  
  
 ---------------------------------------------------------------
 Warning -- This program may not be used in any manner that
 competes with the business of Gaussian, Inc. or will provide
 assistance to any competitor of Gaussian, Inc.  The licensee
 of this program is prohibited from giving any competitor of
 Gaussian, Inc. access to this program.  By using this program,
 the user acknowledges that Gaussian, Inc. is engaged in the
 business of creating and licensing software in the field of
 computational chemistry and represents and warrants to the
 licensee that it is not a competitor of Gaussian, Inc. and that
 it will not use this program in any manner prohibited above.
 ---------------------------------------------------------------
  

 Cite this work as:
 Gaussian 16, Revision C.02,
 M. J. Frisch, G. W. Trucks, H. B. Schlegel, G. E. Scuseria, 
 M. A. Robb, J. R. Cheeseman, G. Scalmani, V. Barone, 
 G. A. Petersson, H. Nakatsuji, X. Li, M. Caricato, A. V. Marenich, 
 J. Bloino, B. G. Janesko, R. Gomperts, B. Mennucci, H. P. Hratchian, 
 J. V. Ortiz, A. F. Izmaylov, J. L. Sonnenberg, D. Williams-Young, 
 F. Ding, F. Lipparini, F. Egidi, J. Goings, B. Peng, A. Petrone, 
 T. Henderson, D. Ranasinghe, V. G. Zakrzewski, J. Gao, N. Rega, 
 G. Zheng, W. Liang, M. Hada, M. Ehara, K. Toyota, R. Fukuda, 
 J. Hasegawa, M. Ishida, T. Nakajima, Y. Honda, O. Kitao, H. Nakai, 
 T. Vreven, K. Throssell, J. A. Montgomery, Jr., J. E. Peralta, 
 F. Ogliaro, M. J. Bearpark, J. J. Heyd, E. N. Brothers, K. N. Kudin, 
 V. N. Staroverov, T. A. Keith, R. Kobayashi, J. Normand, 
 K. Raghavachari, A. P. Rendell, J. C. Burant, S. S. Iyengar, 
 J. Tomasi, M. Cossi, J. M. Millam, M. Klene, C. Adamo, R. Cammi, 
 J. W. Ochterski, R. L. Martin, K. Morokuma, O. Farkas, 
 J. B. Foresman, and D. J. Fox, Gaussian, Inc., Wallingford CT, 2019.
 
 ******************************************
 Gaussian 16:  ES64L-G16RevC.02  7-Dec-2021
                 6-Nov-2023 
 ******************************************
 %nprocshared=36
 Will use up to   36 processors via shared memory.
 %mem=128GB
 -------------------------------------------------------------
 # td=(nstates=150) wB97XD/def2TZVP scrf(smd, solvent=ethanol)
 -------------------------------------------------------------
 1/38=1,172=1/1;
 2/12=2,17=6,18=5,40=1/2;
 3/5=44,7=101,11=9,25=1,30=1,70=32201,72=4,74=-58/1,2,3,8;
 4//1;
 5/5=2,38=5,53=4/2;
 8/6=1,10=1,108=150/1;
 9/41=150,42=1,70=2/14;
 6/7=2,8=2,9=2,10=2/1;
 99/5=1,9=1/99;
 ---
 A-4
 ---
 Symbolic Z-matrix:
 Charge =  1 Multiplicity = 1
 C                    -3.66371  -1.05195  -0.11156 
 C                    -2.38964  -0.47998  -0.08346 
 C                    -1.19497  -1.195    -0.06404 
 C                     0.05835  -0.57832  -0.03561 
 C                    -4.85534  -0.32376  -0.12489 
 S                    -4.92666   1.43671  -0.06062 
 C                    -6.68823   1.40203  -0.08329 
 C                    -7.15496   0.07936  -0.13945 
 N                    -6.11186  -0.85727  -0.18359 
 C                    -7.56515   2.4827   -0.04892 
 C                    -8.93496   2.22022  -0.06579 
 C                    -9.40707   0.90276  -0.11322 
 C                    -8.52936  -0.17953  -0.14882 
 C                    -6.36628  -2.30687  -0.24831 
 C                    -6.46714  -2.95588   1.13326 
 C                     1.28216  -1.24609  -0.01605 
 C                     2.51113  -0.58289   0.01194 
 C                     3.74122  -1.24435  -0.00844 
 C                     5.05244  -0.74902   0.00881 
 S                     6.36259  -1.86699  -0.36529 
 C                     7.56298  -0.60081  -0.16552 
 C                     6.94102   0.61236   0.16985 
 N                     5.54483   0.4953    0.28326 
 C                     8.94627  -0.69554  -0.30211 
 C                     9.70836   0.45414  -0.1007 
 C                     9.09298   1.66866   0.22877 
 C                     7.70945   1.76455   0.3665 
 C                     4.73281   1.62303   0.77014 
 C                     4.28228   2.56989  -0.34424 
 H                    -3.73183  -2.13483  -0.11343 
 H                    -2.31025   0.60799  -0.07629 
 H                    -1.23762  -2.28343  -0.07261 
 H                     0.07916   0.51298  -0.02766 
 H                    -7.19294   3.50135  -0.00844 
 H                    -9.63821   3.04629  -0.03843 
 H                    -10.47604   0.71486  -0.1197 
 H                    -8.91454  -1.19267  -0.17489 
 H                    -7.28921  -2.44204  -0.81662 
 H                    -5.57073  -2.7575   -0.84565 
 H                    -6.66636  -4.02676   1.02338 
 H                    -5.53664  -2.83556   1.69652 
 H                    -7.28005  -2.51465   1.718 
 H                     1.27987  -2.33528  -0.02423 
 H                     2.47239   0.50228   0.01364 
 H                     3.69108  -2.32677  -0.1054 
 H                     9.41663  -1.63929  -0.55871 
 H                     10.78759   0.40544  -0.2035 
 H                     9.70031   2.55586   0.37729 
 H                     7.25129   2.71614   0.61119 
 H                     3.88711   1.20264   1.31689 
 H                     5.34278   2.15493   1.50515 
 H                     3.66872   2.05491  -1.08995 
 H                     3.6925    3.38719   0.08394 
 H                     5.14149   3.00595  -0.86259 
 
 Stoichiometry    C25H25N2S2(1+)
 Framework group  C1[X(C25H25N2S2)]
 Deg. of freedom   156
 Full point group                 C1      NOp   1
 Largest Abelian subgroup         C1      NOp   1
 Largest concise Abelian subgroup C1      NOp   1
                         Standard orientation:                         
 ---------------------------------------------------------------------
 Center     Atomic      Atomic             Coordinates (Angstroms)
 Number     Number       Type             X           Y           Z
 ---------------------------------------------------------------------
      1          6           0       -3.663712   -1.051948   -0.111557
      2          6           0       -2.389638   -0.479979   -0.083458
      3          6           0       -1.194967   -1.195004   -0.064041
      4          6           0        0.058349   -0.578322   -0.035613
      5          6           0       -4.855344   -0.323764   -0.124892
      6         16           0       -4.926662    1.436711   -0.060618
      7          6           0       -6.688233    1.402029   -0.083292
      8          6           0       -7.154955    0.079357   -0.139452
      9          7           0       -6.111858   -0.857268   -0.183590
     10          6           0       -7.565153    2.482703   -0.048916
     11          6           0       -8.934956    2.220220   -0.065794
     12          6           0       -9.407072    0.902760   -0.113224
     13          6           0       -8.529361   -0.179533   -0.148820
     14          6           0       -6.366284   -2.306872   -0.248314
     15          6           0       -6.467137   -2.955883    1.133259
     16          6           0        1.282162   -1.246091   -0.016052
     17          6           0        2.511127   -0.582889    0.011938
     18          6           0        3.741215   -1.244345   -0.008435
     19          6           0        5.052439   -0.749020    0.008808
     20         16           0        6.362590   -1.866987   -0.365292
     21          6           0        7.562983   -0.600806   -0.165520
     22          6           0        6.941017    0.612357    0.169846
     23          7           0        5.544832    0.495298    0.283261
     24          6           0        8.946272   -0.695535   -0.302110
     25          6           0        9.708364    0.454142   -0.100703
     26          6           0        9.092982    1.668657    0.228770
     27          6           0        7.709445    1.764545    0.366500
     28          6           0        4.732809    1.623027    0.770139
     29          6           0        4.282282    2.569892   -0.344236
     30          1           0       -3.731831   -2.134826   -0.113428
     31          1           0       -2.310249    0.607987   -0.076294
     32          1           0       -1.237617   -2.283434   -0.072611
     33          1           0        0.079156    0.512977   -0.027655
     34          1           0       -7.192939    3.501353   -0.008437
     35          1           0       -9.638205    3.046285   -0.038434
     36          1           0      -10.476042    0.714855   -0.119701
     37          1           0       -8.914544   -1.192671   -0.174894
     38          1           0       -7.289207   -2.442036   -0.816617
     39          1           0       -5.570728   -2.757498   -0.845647
     40          1           0       -6.666359   -4.026758    1.023381
     41          1           0       -5.536643   -2.835556    1.696522
     42          1           0       -7.280055   -2.514652    1.717995
     43          1           0        1.279871   -2.335280   -0.024232
     44          1           0        2.472390    0.502280    0.013643
     45          1           0        3.691082   -2.326769   -0.105404
     46          1           0        9.416627   -1.639291   -0.558710
     47          1           0       10.787594    0.405440   -0.203502
     48          1           0        9.700309    2.555856    0.377290
     49          1           0        7.251286    2.716142    0.611187
     50          1           0        3.887111    1.202637    1.316886
     51          1           0        5.342782    2.154926    1.505154
     52          1           0        3.668719    2.054906   -1.089954
     53          1           0        3.692500    3.387191    0.083941
     54          1           0        5.141488    3.005946   -0.862588
 ---------------------------------------------------------------------
 Rotational constants (GHZ):           0.5052897           0.0306476           0.0290656
 Standard basis: def2TZVP (5D, 7F)
 There are  1206 symmetry adapted cartesian basis functions of A   symmetry.
 There are  1061 symmetry adapted basis functions of A   symmetry.
  1061 basis functions,  1715 primitive gaussians,  1206 cartesian basis functions
   110 alpha electrons      110 beta electrons
       nuclear repulsion energy      2585.8618479399 Hartrees.
 NAtoms=   54 NActive=   54 NUniq=   54 SFac= 1.00D+00 NAtFMM=   60 NAOKFM=F Big=F
 Integral buffers will be    131072 words long.
 Raffenetti 1 integral format.
 Two-electron integral symmetry is turned on.
 Nuclear repulsion after empirical dispersion term =     2585.8230603724 Hartrees.
 ------------------------------------------------------------------------------
 Polarizable Continuum Model (PCM)
 =================================
 Model                : PCM.
 Atomic radii         : SMD-Coulomb.
 Polarization charges : Total charges.
 Charge compensation  : None.
 Solution method      : On-the-fly selection.
 Cavity type          : VdW (van der Waals Surface) (Alpha=1.000).
 Cavity algorithm     : GePol (No added spheres)
                        Default sphere list used, NSphG=   54.
                        Lebedev-Laikov grids with approx.  5.0 points / Ang**2.
                        Smoothing algorithm: York/Karplus (Gamma=1.0000).
                        Polarization charges: spherical gaussians, with
                                              point-specific exponents (IZeta= 3).
                        Self-potential: point-specific (ISelfS= 7).
                        Self-field    : sphere-specific E.n sum rule (ISelfD= 2).
 Solvent              : Ethanol, Eps=  24.852000 Eps(inf)=   1.852593
 ------------------------------------------------------------------------------
 ------------------------------------------------------------------------------
 Atomic radii for non-electrostatic terms: SMD-CDS.
 ------------------------------------------------------------------------------
 Nuclear repulsion after PCM non-electrostatic terms =     2585.8162422359 Hartrees.
 One-electron integrals computed using PRISM.
   1 Symmetry operations used in ECPInt.
 ECPInt:  NShTT=   89676 NPrTT=  277881 LenC2=   56315 LenP2D=  119243.
 LDataN:  DoStor=T MaxTD1= 6 Len=  172
 NBasis=  1061 RedAO= T EigKep=  7.12D-06  NBF=  1061
 NBsUse=  1061 1.00D-06 EigRej= -1.00D+00 NBFU=  1061
 ExpMin= 9.52D-02 ExpMax= 6.07D+04 ExpMxC= 2.07D+03 IAcc=3 IRadAn=         5 AccDes= 0.00D+00
 Harris functional with IExCor= 4639 and IRadAn=       5 diagonalized for initial guess.
 HarFok:  IExCor= 4639 AccDes= 0.00D+00 IRadAn=         5 IDoV= 1 UseB2=F ITyADJ=14
 ICtDFT=  3500011 ScaDFX=  1.000000  1.000000  1.000000  1.000000
 FoFCou: FMM=F IPFlag=           0 FMFlag=      100000 FMFlg1=           0
         NFxFlg=           0 DoJE=T BraDBF=F KetDBF=T FulRan=T
         wScrn=  0.000000 ICntrl=       500 IOpCl=  0 I1Cent=   200000004 NGrid=           0
         NMat0=    1 NMatS0=      1 NMatT0=    0 NMatD0=    1 NMtDS0=    0 NMtDT0=    0
 Petite list used in FoFCou.
 Requested convergence on RMS density matrix=1.00D-08 within 128 cycles.
 Requested convergence on MAX density matrix=1.00D-06.
 Requested convergence on             energy=1.00D-06.
 No special actions if energy rises.
 Inv3:  Mode=1 IEnd=    53425200.
 Iteration    1 A*A^-1 deviation from unit magnitude is 3.55D-15 for    321.
 Iteration    1 A*A^-1 deviation from orthogonality  is 2.17D-15 for   1989    493.
 Iteration    1 A^-1*A deviation from unit magnitude is 3.33D-15 for    321.
 Iteration    1 A^-1*A deviation from orthogonality  is 2.83D-15 for    636    388.
 Error on total polarization charges =  0.06815
 SCF Done:  E(RwB97XD) =  -1873.49398478     A.U. after   17 cycles
            NFock= 17  Conv=0.84D-08     -V/T= 2.0041
 SMD-CDS (non-electrostatic) energy       (kcal/mol) =      -4.28
 (included in total energy above)
 DoSCS=F DFT=T ScalE2(SS,OS)=  1.000000  1.000000
 ExpMin= 9.52D-02 ExpMax= 6.07D+04 ExpMxC= 2.07D+03 IAcc=3 IRadAn=         5 AccDes= 0.00D+00
 HarFok:  IExCor=  205 AccDes= 0.00D+00 IRadAn=         5 IDoV=-2 UseB2=F ITyADJ=14
 ICtDFT= 12500011 ScaDFX=  1.000000  1.000000  1.000000  1.000000
 GSVD:  LWork=       -1665 too small for GESVD, short by        7400 words or        7400 for optimal perf.
 Range of M.O.s used for correlation:    38  1061
 NBasis=  1061 NAE=   110 NBE=   110 NFC=    37 NFV=     0
 NROrb=   1024 NOA=    73 NOB=    73 NVA=   951 NVB=   951

 **** Warning!!: The largest alpha MO coefficient is  0.46578639D+02

 NEqPCM:  Using non-equilibrium solvation (IEInf=1, Eps=  24.8520, EpsInf=   1.8526)
 Inv3:  Mode=1 IEnd=    53425200.
 Iteration    1 A*A^-1 deviation from unit magnitude is 3.33D-15 for   2136.
 Iteration    1 A*A^-1 deviation from orthogonality  is 1.84D-15 for   1281    176.
 Iteration    1 A^-1*A deviation from unit magnitude is 3.33D-15 for   3435.
 Iteration    1 A^-1*A deviation from orthogonality  is 2.91D-15 for   1749    718.
 Orbital symmetries:
       Occupied  (A) (A) (A) (A) (A) (A) (A) (A) (A) (A) (A) (A)
                 (A) (A) (A) (A) (A) (A) (A) (A) (A) (A) (A) (A)
                 (A) (A) (A) (A) (A) (A) (A) (A) (A) (A) (A) (A)
                 (A) (A) (A) (A) (A) (A) (A) (A) (A) (A) (A) (A)
                 (A) (A) (A) (A) (A) (A) (A) (A) (A) (A) (A) (A)
                 (A) (A) (A) (A) (A) (A) (A) (A) (A) (A) (A) (A)
                 (A) (A) (A) (A) (A) (A) (A) (A) (A) (A) (A) (A)
                 (A) (A) (A) (A) (A) (A) (A) (A) (A) (A) (A) (A)
                 (A) (A) (A) (A) (A) (A) (A) (A) (A) (A) (A) (A)
                 (A) (A)
       Virtual   (A) (A) (A) (A) (A) (A) (A) (A) (A) (A) (A) (A)
                 (A) (A) (A) (A) (A) (A) (A) (A) (A) (A) (A) (A)
                 (A) (A) (A) (A) (A) (A) (A) (A) (A) (A) (A) (A)
                 (A) (A) (A) (A) (A) (A) (A) (A) (A) (A) (A) (A)
                 (A) (A) (A) (A) (A) (A) (A) (A) (A) (A) (A) (A)
                 (A) (A) (A) (A) (A) (A) (A) (A) (A) (A) (A) (A)
                 (A) (A) (A) (A) (A) (A) (A) (A) (A) (A) (A) (A)
                 (A) (A) (A) (A) (A) (A) (A) (A) (A) (A) (A) (A)
                 (A) (A) (A) (A) (A) (A) (A) (A) (A) (A) (A) (A)
                 (A) (A) (A) (A) (A) (A) (A) (A) (A) (A) (A) (A)
                 (A) (A) (A) (A) (A) (A) (A) (A) (A) (A) (A) (A)
                 (A) (A) (A) (A) (A) (A) (A) (A) (A) (A) (A) (A)
                 (A) (A) (A) (A) (A) (A) (A) (A) (A) (A) (A) (A)
                 (A) (A) (A) (A) (A) (A) (A) (A) (A) (A) (A) (A)
                 (A) (A) (A) (A) (A) (A) (A) (A) (A) (A) (A) (A)
                 (A) (A) (A) (A) (A) (A) (A) (A) (A) (A) (A) (A)
                 (A) (A) (A) (A) (A) (A) (A) (A) (A) (A) (A) (A)
                 (A) (A) (A) (A) (A) (A) (A) (A) (A) (A) (A) (A)
                 (A) (A) (A) (A) (A) (A) (A) (A) (A) (A) (A) (A)
                 (A) (A) (A) (A) (A) (A) (A) (A) (A) (A) (A) (A)
                 (A) (A) (A) (A) (A) (A) (A) (A) (A) (A) (A) (A)
                 (A) (A) (A) (A) (A) (A) (A) (A) (A) (A) (A) (A)
                 (A) (A) (A) (A) (A) (A) (A) (A) (A) (A) (A) (A)
                 (A) (A) (A) (A) (A) (A) (A) (A) (A) (A) (A) (A)
                 (A) (A) (A) (A) (A) (A) (A) (A) (A) (A) (A) (A)
                 (A) (A) (A) (A) (A) (A) (A) (A) (A) (A) (A) (A)
                 (A) (A) (A) (A) (A) (A) (A) (A) (A) (A) (A) (A)
                 (A) (A) (A) (A) (A) (A) (A) (A) (A) (A) (A) (A)
                 (A) (A) (A) (A) (A) (A) (A) (A) (A) (A) (A) (A)
                 (A) (A) (A) (A) (A) (A) (A) (A) (A) (A) (A) (A)
                 (A) (A) (A) (A) (A) (A) (A) (A) (A) (A) (A) (A)
                 (A) (A) (A) (A) (A) (A) (A) (A) (A) (A) (A) (A)
                 (A) (A) (A) (A) (A) (A) (A) (A) (A) (A) (A) (A)
                 (A) (A) (A) (A) (A) (A) (A) (A) (A) (A) (A) (A)
                 (A) (A) (A) (A) (A) (A) (A) (A) (A) (A) (A) (A)
                 (A) (A) (A) (A) (A) (A) (A) (A) (A) (A) (A) (A)
                 (A) (A) (A) (A) (A) (A) (A) (A) (A) (A) (A) (A)
                 (A) (A) (A) (A) (A) (A) (A) (A) (A) (A) (A) (A)
                 (A) (A) (A) (A) (A) (A) (A) (A) (A) (A) (A) (A)
                 (A) (A) (A) (A) (A) (A) (A) (A) (A) (A) (A) (A)
                 (A) (A) (A) (A) (A) (A) (A) (A) (A) (A) (A) (A)
                 (A) (A) (A) (A) (A) (A) (A) (A) (A) (A) (A) (A)
                 (A) (A) (A) (A) (A) (A) (A) (A) (A) (A) (A) (A)
                 (A) (A) (A) (A) (A) (A) (A) (A) (A) (A) (A) (A)
                 (A) (A) (A) (A) (A) (A) (A) (A) (A) (A) (A) (A)
                 (A) (A) (A) (A) (A) (A) (A) (A) (A) (A) (A) (A)
                 (A) (A) (A) (A) (A) (A) (A) (A) (A) (A) (A) (A)
                 (A) (A) (A) (A) (A) (A) (A) (A) (A) (A) (A) (A)
                 (A) (A) (A) (A) (A) (A) (A) (A) (A) (A) (A) (A)
                 (A) (A) (A) (A) (A) (A) (A) (A) (A) (A) (A) (A)
                 (A) (A) (A) (A) (A) (A) (A) (A) (A) (A) (A) (A)
                 (A) (A) (A) (A) (A) (A) (A) (A) (A) (A) (A) (A)
                 (A) (A) (A) (A) (A) (A) (A) (A) (A) (A) (A) (A)
                 (A) (A) (A) (A) (A) (A) (A) (A) (A) (A) (A) (A)
                 (A) (A) (A) (A) (A) (A) (A) (A) (A) (A) (A) (A)
                 (A) (A) (A) (A) (A) (A) (A) (A) (A) (A) (A) (A)
                 (A) (A) (A) (A) (A) (A) (A) (A) (A) (A) (A) (A)
                 (A) (A) (A) (A) (A) (A) (A) (A) (A) (A) (A) (A)
                 (A) (A) (A) (A) (A) (A) (A) (A) (A) (A) (A) (A)
                 (A) (A) (A) (A) (A) (A) (A) (A) (A) (A) (A) (A)
                 (A) (A) (A) (A) (A) (A) (A) (A) (A) (A) (A) (A)
                 (A) (A) (A) (A) (A) (A) (A) (A) (A) (A) (A) (A)
                 (A) (A) (A) (A) (A) (A) (A) (A) (A) (A) (A) (A)
                 (A) (A) (A) (A) (A) (A) (A) (A) (A) (A) (A) (A)
                 (A) (A) (A) (A) (A) (A) (A) (A) (A) (A) (A) (A)
                 (A) (A) (A) (A) (A) (A) (A) (A) (A) (A) (A) (A)
                 (A) (A) (A) (A) (A) (A) (A) (A) (A) (A) (A) (A)
                 (A) (A) (A) (A) (A) (A) (A) (A) (A) (A) (A) (A)
                 (A) (A) (A) (A) (A) (A) (A) (A) (A) (A) (A) (A)
                 (A) (A) (A) (A) (A) (A) (A) (A) (A) (A) (A) (A)
                 (A) (A) (A) (A) (A) (A) (A) (A) (A) (A) (A) (A)
                 (A) (A) (A) (A) (A) (A) (A) (A) (A) (A) (A) (A)
                 (A) (A) (A) (A) (A) (A) (A) (A) (A) (A) (A) (A)
                 (A) (A) (A) (A) (A) (A) (A) (A) (A) (A) (A) (A)
                 (A) (A) (A) (A) (A) (A) (A) (A) (A) (A) (A) (A)
                 (A) (A) (A) (A) (A) (A) (A) (A) (A) (A) (A) (A)
                 (A) (A) (A) (A) (A) (A) (A) (A) (A) (A) (A) (A)
                 (A) (A) (A) (A) (A) (A) (A) (A) (A) (A) (A) (A)
                 (A) (A) (A) (A) (A) (A) (A) (A) (A) (A) (A) (A)
                 (A) (A) (A)
   600 initial guesses have been made.
 Convergence on wavefunction:    0.001000000000000
 Iteration     1 Dimension   600 NMult     0 NNew    600
 CISAX will form   144 AO SS matrices at one time.
 New state      5 was old state     10
 New state      6 was old state      5
 New state      7 was old state     12
 New state      8 was old state      7
 New state      9 was old state      6
 New state     10 was old state      8
 New state     11 was old state      9
 New state     12 was old state     11
 New state     15 was old state     53
 New state     16 was old state     58
 New state     17 was old state     15
 New state     18 was old state     45
 New state     19 was old state     46
 New state     20 was old state     49
 New state     21 was old state     19
 New state     22 was old state     18
 New state     23 was old state     24
 New state     24 was old state     54
 New state     25 was old state     33
 New state     26 was old state     36
 New state     27 was old state     32
 New state     28 was old state     67
 New state     29 was old state     27
 New state     31 was old state     26
 New state     32 was old state     22
 New state     33 was old state     41
 New state     34 was old state     37
 New state     35 was old state     66
 New state     36 was old state     20
 New state     37 was old state     21
 New state     38 was old state     39
 New state     39 was old state     48
 New state     40 was old state     25
 New state     41 was old state     84
 New state     42 was old state     38
 New state     43 was old state     17
 New state     44 was old state     57
 New state     45 was old state     56
 New state     46 was old state     44
 New state     48 was old state     29
 New state     49 was old state     65
 New state     50 was old state     40
 New state     51 was old state     23
 New state     52 was old state     51
 New state     53 was old state     61
 New state     54 was old state    149
 New state     55 was old state    159
 New state     56 was old state     68
 New state     57 was old state     71
 New state     58 was old state     82
 New state     59 was old state     75
 New state     60 was old state     43
 New state     61 was old state     96
 New state     62 was old state    179
 New state     63 was old state     52
 New state     64 was old state    112
 New state     65 was old state    103
 New state     66 was old state    183
 New state     67 was old state     63
 New state     68 was old state     87
 New state     69 was old state     76
 New state     70 was old state     97
 New state     71 was old state     77
 New state     72 was old state     62
 New state     73 was old state     70
 New state     74 was old state     64
 New state     75 was old state     73
 New state     76 was old state    219
 New state     77 was old state    255
 New state     78 was old state    120
 New state     79 was old state    241
 New state     80 was old state    138
 New state     81 was old state    135
 New state     82 was old state    100
 New state     83 was old state    155
 New state     84 was old state     78
 New state     85 was old state    137
 New state     86 was old state    234
 New state     87 was old state    246
 New state     88 was old state    102
 New state     89 was old state     60
 New state     90 was old state    171
 New state     91 was old state     95
 New state     92 was old state     86
 New state     93 was old state     92
 New state     94 was old state     83
 New state     95 was old state     88
 New state     96 was old state     81
 New state     97 was old state     69
 New state     98 was old state     42
 New state     99 was old state    143
 New state    100 was old state     90
 New state    101 was old state    128
 New state    102 was old state     98
 New state    103 was old state    145
 New state    104 was old state    188
 New state    106 was old state    108
 New state    107 was old state    106
 New state    108 was old state     91
 New state    109 was old state     31
 New state    110 was old state    111
 New state    111 was old state     35
 New state    112 was old state     80
 New state    113 was old state    152
 New state    114 was old state    200
 New state    115 was old state     94
 New state    116 was old state    104
 New state    117 was old state    119
 New state    118 was old state    157
 New state    119 was old state    118
 New state    120 was old state     85
 New state    121 was old state    107
 New state    122 was old state    330
 New state    123 was old state    274
 New state    124 was old state    115
 New state    125 was old state    153
 New state    126 was old state    114
 New state    127 was old state    147
 New state    128 was old state    175
 New state    129 was old state    291
 New state    130 was old state     72
 New state    131 was old state    165
 New state    132 was old state    221
 New state    133 was old state     55
 New state    134 was old state     50
 New state    135 was old state    164
 New state    136 was old state    206
 New state    137 was old state    214
 New state    138 was old state    203
 New state    139 was old state     59
 New state    140 was old state    192
 New state    141 was old state    194
 New state    142 was old state    132
 New state    143 was old state    136
 New state    144 was old state    150
 New state    145 was old state    130
 New state    146 was old state    134
 New state    147 was old state    139
 New state    148 was old state     89
 New state    149 was old state    142
 New state    150 was old state    191
 Iteration     2 Dimension   900 NMult   600 NNew    300
 New state      5 was old state      6
 New state      6 was old state      5
 New state      8 was old state      9
 New state      9 was old state      8
 New state     14 was old state     17
 New state     15 was old state     14
 New state     16 was old state     18
 New state     17 was old state     15
 New state     18 was old state     16
 New state     19 was old state     27
 New state     20 was old state     19
 New state     21 was old state     23
 New state     22 was old state     20
 New state     23 was old state     25
 New state     24 was old state     21
 New state     25 was old state     24
 New state     26 was old state     22
 New state     27 was old state     26
 New state     28 was old state     32
 New state     29 was old state     33
 New state     30 was old state     28
 New state     31 was old state     29
 New state     32 was old state     36
 New state     33 was old state     37
 New state     34 was old state     30
 New state     35 was old state     31
 New state     36 was old state     34
 New state     37 was old state     40
 New state     38 was old state     35
 New state     39 was old state     42
 New state     40 was old state     41
 New state     41 was old state     38
 New state     42 was old state     39
 New state     43 was old state     47
 New state     44 was old state     48
 New state     45 was old state     44
 New state     46 was old state     43
 New state     47 was old state     46
 New state     48 was old state     51
 New state     49 was old state     45
 New state     50 was old state     49
 New state     51 was old state     50
 New state     52 was old state     53
 New state     53 was old state     52
 New state     56 was old state     64
 New state     58 was old state     59
 New state     59 was old state     56
 New state     60 was old state     58
 New state     61 was old state     60
 New state     62 was old state     61
 New state     63 was old state     62
 New state     64 was old state     63
 New state     65 was old state     72
 New state     67 was old state     65
 New state     68 was old state     69
 No map to state     69
 New state     70 was old state     67
 New state     71 was old state     70
 New state     72 was old state     68
 New state     73 was old state     71
 New state     74 was old state     73
 New state     75 was old state     81
 New state     76 was old state     84
 New state     77 was old state     74
 New state     78 was old state     75
 New state     79 was old state     76
 New state     80 was old state     79
 New state     81 was old state     77
 New state     82 was old state     78
 New state     83 was old state     80
 New state     84 was old state     82
 New state     85 was old state     83
 New state     86 was old state     85
 New state     87 was old state     86
 New state     88 was old state     87
 New state     89 was old state     97
 New state     90 was old state     94
 New state     91 was old state     88
 New state     92 was old state     90
 New state     93 was old state     91
 New state     94 was old state     93
 New state     96 was old state     92
 New state     97 was old state     96
 New state    100 was old state    102
 New state    102 was old state    103
 New state    103 was old state    108
 New state    104 was old state    106
 New state    106 was old state    107
 New state    107 was old state    104
 New state    108 was old state    113
 New state    109 was old state    112
 New state    111 was old state    114
 New state    112 was old state    118
 New state    113 was old state    109
 New state    114 was old state    116
 New state    116 was old state    117
 New state    117 was old state    122
 New state    118 was old state    120
 New state    119 was old state    121
 New state    120 was old state    111
 New state    121 was old state    123
 New state    122 was old state    126
 New state    123 was old state    119
 New state    126 was old state    127
 New state    127 was old state    156
 New state    128 was old state    129
 New state    129 was old state    130
 New state    130 was old state    128
 New state    131 was old state    158
 New state    133 was old state    134
 New state    134 was old state    131
 New state    136 was old state    133
 New state    139 was old state    140
 New state    140 was old state    141
 New state    141 was old state    143
 New state    143 was old state    136
 No map to state    145
 New state    146 was old state    147
 New state    147 was old state    146
 New state    149 was old state    139
 New state    150 was old state    145
 Iteration     3 Dimension  1200 NMult   900 NNew    300
 New state    126 was old state    128
 New state    128 was old state    126
 New state    129 was old state    130
 New state    130 was old state    129
 Iteration     4 Dimension  1496 NMult  1200 NNew    296
 New state    146 was old state    147
 New state    147 was old state    146
 New state    149 was old state    150
 New state    150 was old state    149
 Iteration     5 Dimension  1636 NMult  1496 NNew    140
 Iteration     6 Dimension  1668 NMult  1636 NNew     32
 Iteration     7 Dimension  1680 NMult  1668 NNew     12
 ***********************************************************************
 Excited states from <AA,BB:AA,BB> singles matrix:
 ***********************************************************************
 
 Ground to excited state transition densities written to RWF  633
 Ground to excited state transition electric dipole moments (Au):
       state          X           Y           Z        Dip. S.      Osc.
         1         7.5532     -0.1730      0.0474     57.0836      2.8174
         2         0.2031      0.9081      0.0022      0.8659      0.0797
         3        -0.1204      0.6186     -0.0027      0.3972      0.0422
         4        -0.0890     -0.3364     -0.0128      0.1213      0.0136
         5        -0.1566      0.2738      0.0793      0.1057      0.0120
         6         0.0650      0.1028      0.0555      0.0179      0.0021
         7         0.0322      0.0246      0.0129      0.0018      0.0002
         8        -0.3131     -0.2971     -0.0367      0.1877      0.0223
         9         0.9137      0.2620     -0.0108      0.9036      0.1081
        10         0.1968      0.8657      0.1842      0.8221      0.1001
        11         0.0964     -0.5577     -0.0922      0.3288      0.0423
        12        -0.4168     -0.1744      0.0377      0.2055      0.0268
        13         0.2274      0.0105     -0.0163      0.0521      0.0072
        14        -1.0305      0.1139      0.0159      1.0751      0.1528
        15        -1.4161      0.3204      0.0298      2.1088      0.3070
        16        -0.1940     -0.9488      0.0489      0.9402      0.1384
        17         0.1799      0.0662      0.0192      0.0371      0.0055
        18         0.0375     -0.1032     -0.0115      0.0122      0.0018
        19        -0.0262     -0.4470     -0.0279      0.2013      0.0302
        20        -0.0234      0.1841      0.0849      0.0416      0.0063
        21         0.6631     -0.5042     -0.0906      0.7021      0.1060
        22         0.0490     -0.0084     -0.0103      0.0026      0.0004
        23        -0.2208      0.2161      0.0031      0.0955      0.0148
        24         0.1225      0.0568      0.0323      0.0193      0.0030
        25         0.4917     -0.3769     -0.0909      0.3921      0.0618
        26        -0.0600     -0.4483     -0.0178      0.2049      0.0325
        27         0.0477     -0.1005      0.0379      0.0138      0.0022
        28        -0.2541      0.2311     -0.0703      0.1229      0.0196
        29        -0.0120     -0.0963     -0.0279      0.0102      0.0016
        30        -0.0967      0.0725      0.0295      0.0155      0.0025
        31         0.1066     -0.2430      0.0058      0.0704      0.0115
        32        -1.8191     -0.3042     -0.0503      3.4043      0.5587
        33         0.7980      1.2738      0.2257      2.3104      0.3798
        34         0.3942     -0.0974      0.0288      0.1657      0.0273
        35        -0.1335      0.0654      0.0064      0.0221      0.0037
        36         0.3757     -0.0008     -0.2296      0.1939      0.0328
        37         0.2771      0.1780      0.0822      0.1152      0.0195
        38         0.0086      0.0408      0.0043      0.0018      0.0003
        39        -0.4025      0.9010      0.1024      0.9843      0.1699
        40        -0.1482     -0.1420      0.0321      0.0432      0.0075
        41         0.0405      0.0865      0.0117      0.0093      0.0016
        42        -0.1088      0.3497      0.0228      0.1346      0.0236
        43        -0.2720      0.2925     -0.0304      0.1605      0.0283
        44        -0.4415      0.3298      0.0162      0.3040      0.0537
        45        -0.2232     -0.0359      0.0209      0.0515      0.0091
        46         0.3357     -0.1408     -0.0904      0.1407      0.0250
        47         0.0144      0.0492     -0.0465      0.0048      0.0009
        48         0.2202      0.1911     -0.0502      0.0875      0.0158
        49        -0.0208     -0.0554      0.0132      0.0037      0.0007
        50        -0.0453      0.0850     -0.0463      0.0114      0.0021
        51         0.1216     -0.0370     -0.0315      0.0171      0.0032
        52        -0.0375     -0.0849      0.0607      0.0123      0.0023
        53         0.0403     -0.1795     -0.1030      0.0444      0.0084
        54         0.1501      0.0016     -0.0959      0.0317      0.0060
        55        -0.1450      0.2220      0.0143      0.0705      0.0134
        56         0.2705      0.3303     -0.0340      0.1834      0.0350
        57        -0.0848     -0.2234      0.0186      0.0574      0.0110
        58         0.6351     -0.5046      0.0013      0.6580      0.1257
        59         0.1331     -0.0479     -0.0270      0.0207      0.0040
        60         0.0481     -0.0394      0.0931      0.0125      0.0024
        61        -0.0004      0.5166      0.0345      0.2681      0.0516
        62        -0.0261     -0.0588      0.1241      0.0195      0.0038
        63         0.1206      0.0866      0.1818      0.0551      0.0107
        64        -0.2268     -0.1867      0.0581      0.0897      0.0174
        65         0.4389     -0.3039     -0.1293      0.3017      0.0587
        66         0.1393     -0.1115     -0.0603      0.0355      0.0069
        67        -0.1537      0.1675     -0.0918      0.0601      0.0117
        68         0.3956     -0.5429     -0.0445      0.4532      0.0886
        69        -0.0430      0.2064      0.0236      0.0450      0.0089
        70        -0.0869      0.1987     -0.0143      0.0473      0.0093
        71        -0.0018      0.4468     -0.0547      0.2026      0.0401
        72        -0.0448      0.1504      0.0202      0.0250      0.0050
        73        -0.0301      0.5348      0.0766      0.2928      0.0583
        74        -0.1407      0.0343      0.2109      0.0654      0.0131
        75         0.0630     -0.6553     -0.1136      0.4463      0.0895
        76         0.1671      0.1268     -0.1229      0.0591      0.0119
        77         0.3781     -0.0236      0.0598      0.1471      0.0297
        78         0.5113      0.2947     -0.0167      0.3486      0.0705
        79        -0.1326      0.2136      0.3207      0.1661      0.0337
        80        -0.0207     -0.0023      0.0569      0.0037      0.0007
        81         0.0408     -0.0329     -0.1114      0.0152      0.0031
        82         0.2223     -0.0574      0.2754      0.1285      0.0262
        83        -0.0706     -0.0134      0.0775      0.0112      0.0023
        84        -0.1066     -0.1510     -0.0134      0.0343      0.0070
        85        -0.0091     -0.0492      0.0046      0.0025      0.0005
        86        -0.0032     -0.0341      0.0276      0.0019      0.0004
        87         0.0308     -0.2155      0.1050      0.0584      0.0120
        88        -0.0242      0.0412     -0.0717      0.0074      0.0015
        89         0.0157     -0.3962     -0.0049      0.1572      0.0325
        90         0.0329     -0.1179     -0.0387      0.0165      0.0034
        91        -0.0445     -0.0299     -0.1812      0.0357      0.0075
        92        -0.0067     -0.2080     -0.0800      0.0497      0.0104
        93         0.0943      0.0309     -0.0747      0.0154      0.0032
        94         0.0170      0.1168     -0.0578      0.0173      0.0036
        95         0.1268     -0.0452     -0.0277      0.0189      0.0040
        96         0.0440      0.0878      0.0905      0.0178      0.0038
        97        -0.1647     -0.0429      0.0813      0.0356      0.0075
        98         0.2747      0.2588     -0.0740      0.1479      0.0314
        99        -0.0288     -0.0104      0.0341      0.0021      0.0004
       100         0.0650     -0.2392     -0.1400      0.0810      0.0172
       101        -0.0470     -0.3993     -0.0497      0.1641      0.0351
       102         0.1544     -0.2682     -0.0596      0.0993      0.0212
       103        -0.0084      0.0691     -0.0465      0.0070      0.0015
       104        -0.0975     -0.1197      0.0205      0.0243      0.0052
       105        -0.1668      0.0602      0.1177      0.0453      0.0098
       106         0.0211      0.0209     -0.0139      0.0011      0.0002
       107         0.1311      0.0608     -0.0159      0.0211      0.0046
       108        -0.0304     -0.0763      0.0173      0.0071      0.0015
       109         0.0300     -0.3994      0.0172      0.1608      0.0350
       110        -0.1728      0.1539      0.0787      0.0597      0.0131
       111         0.0110      0.0470     -0.0003      0.0023      0.0005
       112         0.0998      0.2673      0.0089      0.0815      0.0179
       113         0.0980     -0.1503     -0.0194      0.0326      0.0072
       114        -0.2058      0.0488      0.0182      0.0451      0.0099
       115         0.4340     -0.1931      0.0272      0.2264      0.0499
       116         0.1838     -0.0178      0.1039      0.0449      0.0099
       117         0.3508      0.0702      0.0962      0.1373      0.0303
       118        -0.2409      0.1545      0.0053      0.0819      0.0181
       119        -0.2844      0.1938      0.1208      0.1331      0.0295
       120         0.2551      0.0819     -0.1456      0.0930      0.0206
       121        -0.0702      0.0676     -0.0037      0.0095      0.0021
       122        -0.0762     -0.3408      0.0036      0.1219      0.0271
       123         0.3736     -0.2351     -0.0410      0.1965      0.0437
       124         0.1229     -0.0263     -0.1396      0.0353      0.0079
       125        -0.3387      0.4207      0.0216      0.2921      0.0651
       126         0.0453      0.5066     -0.0692      0.2635      0.0589
       127        -0.2507      0.3933     -0.0869      0.2251      0.0504
       128        -0.1410      0.3307      0.0416      0.1310      0.0293
       129        -0.2699      0.1789      0.0300      0.1058      0.0238
       130         0.2508     -0.0277      0.0446      0.0657      0.0148
       131        -0.1710      0.1252     -0.0269      0.0457      0.0103
       132        -0.0415     -0.0652     -0.0209      0.0064      0.0014
       133         0.0996     -0.0500      0.0073      0.0125      0.0028
       134         0.0742      0.0452      0.0336      0.0087      0.0020
       135         0.0949     -0.1012     -0.0333      0.0204      0.0046
       136         0.1209     -0.1512      0.0133      0.0377      0.0086
       137        -0.0635      0.0884      0.0447      0.0138      0.0032
       138         0.0223      0.0187      0.0893      0.0088      0.0020
       139        -0.0944      0.1038     -0.0373      0.0211      0.0048
       140         0.1229      0.0319      0.0746      0.0217      0.0050
       141        -0.0935      0.1208      0.0304      0.0243      0.0056
       142         0.0413      0.0172     -0.1222      0.0169      0.0039
       143        -0.0056     -0.0236      0.0216      0.0011      0.0002
       144        -0.0191      0.0301     -0.0648      0.0055      0.0013
       145         0.0297      0.0186     -0.0941      0.0101      0.0023
       146        -0.0010      0.0053      0.0423      0.0018      0.0004
       147         0.2346     -0.0048      0.0091      0.0551      0.0128
       148         0.0340      0.1006     -0.0186      0.0116      0.0027
       149        -0.0270      0.0074      0.0513      0.0034      0.0008
       150         0.1880     -0.0345     -0.0298      0.0374      0.0087
 Ground to excited state transition velocity dipole moments (Au):
       state          X           Y           Z        Dip. S.      Osc.
         1        -0.5566      0.0130     -0.0035      0.3100      2.7918
         2        -0.0274     -0.1250     -0.0002      0.0164      0.0790
         3         0.0191     -0.0995      0.0004      0.0103      0.0430
         4         0.0154      0.0564      0.0022      0.0034      0.0135
         5         0.0258     -0.0466     -0.0133      0.0030      0.0118
         6        -0.0112     -0.0181     -0.0100      0.0006      0.0021
         7        -0.0057     -0.0043     -0.0028      0.0001      0.0002
         8         0.0559      0.0528      0.0065      0.0060      0.0222
         9        -0.1627     -0.0495      0.0020      0.0289      0.1074
        10        -0.0350     -0.1603     -0.0339      0.0281      0.1024
        11        -0.0208      0.1094      0.0180      0.0127      0.0439
        12         0.0798      0.0357     -0.0074      0.0077      0.0263
        13        -0.0477     -0.0029      0.0033      0.0023      0.0073
        14         0.2188     -0.0242     -0.0030      0.0485      0.1516
        15         0.3089     -0.0720     -0.0070      0.1007      0.3073
        16         0.0436      0.2094     -0.0108      0.0459      0.1384
        17        -0.0406     -0.0143     -0.0045      0.0019      0.0056
        18        -0.0087      0.0234      0.0032      0.0006      0.0019
        19         0.0056      0.1016      0.0058      0.0104      0.0308
        20         0.0068     -0.0417     -0.0193      0.0022      0.0064
        21        -0.1520      0.1166      0.0213      0.0372      0.1094
        22        -0.0110      0.0021      0.0030      0.0001      0.0004
        23         0.0491     -0.0500     -0.0001      0.0049      0.0140
        24        -0.0262     -0.0129     -0.0076      0.0009      0.0026
        25        -0.1147      0.0887      0.0218      0.0215      0.0606
        26         0.0146      0.1055      0.0041      0.0114      0.0319
        27        -0.0116      0.0235     -0.0089      0.0008      0.0022
        28         0.0619     -0.0562      0.0170      0.0073      0.0203
        29         0.0025      0.0233      0.0077      0.0006      0.0017
        30         0.0227     -0.0168     -0.0079      0.0009      0.0024
        31        -0.0267      0.0583     -0.0014      0.0041      0.0112
        32         0.4452      0.0748      0.0122      0.2040      0.5524
        33        -0.1964     -0.3131     -0.0557      0.1397      0.3776
        34        -0.0979      0.0234     -0.0074      0.0102      0.0274
        35         0.0326     -0.0186     -0.0008      0.0014      0.0038
        36        -0.0947     -0.0006      0.0567      0.0122      0.0320
        37        -0.0707     -0.0454     -0.0191      0.0074      0.0195
        38        -0.0021     -0.0102     -0.0014      0.0001      0.0003
        39         0.1060     -0.2326     -0.0266      0.0660      0.1701
        40         0.0388      0.0375     -0.0092      0.0030      0.0077
        41        -0.0108     -0.0227     -0.0043      0.0006      0.0017
        42         0.0286     -0.0921     -0.0060      0.0093      0.0237
        43         0.0720     -0.0758      0.0077      0.0110      0.0277
        44         0.1168     -0.0873     -0.0040      0.0213      0.0535
        45         0.0591      0.0099     -0.0061      0.0036      0.0091
        46        -0.0894      0.0378      0.0236      0.0100      0.0249
        47        -0.0033     -0.0127      0.0133      0.0003      0.0009
        48        -0.0596     -0.0526      0.0135      0.0065      0.0160
        49         0.0053      0.0154     -0.0044      0.0003      0.0007
        50         0.0128     -0.0235      0.0129      0.0009      0.0021
        51        -0.0325      0.0115      0.0084      0.0013      0.0030
        52         0.0106      0.0238     -0.0181      0.0010      0.0024
        53        -0.0108      0.0498      0.0287      0.0034      0.0081
        54        -0.0421     -0.0010      0.0267      0.0025      0.0058
        55         0.0420     -0.0629     -0.0046      0.0057      0.0134
        56        -0.0758     -0.0948      0.0098      0.0148      0.0346
        57         0.0236      0.0628     -0.0044      0.0045      0.0105
        58        -0.1836      0.1442     -0.0005      0.0545      0.1267
        59        -0.0379      0.0147      0.0071      0.0017      0.0040
        60        -0.0150      0.0124     -0.0261      0.0011      0.0025
        61        -0.0002     -0.1472     -0.0089      0.0218      0.0502
        62         0.0074      0.0173     -0.0344      0.0015      0.0035
        63        -0.0346     -0.0253     -0.0510      0.0044      0.0102
        64         0.0645      0.0537     -0.0161      0.0073      0.0167
        65        -0.1282      0.0871      0.0368      0.0254      0.0580
        66        -0.0411      0.0327      0.0165      0.0030      0.0069
        67         0.0445     -0.0492      0.0283      0.0052      0.0118
        68        -0.1153      0.1572      0.0140      0.0382      0.0868
        69         0.0123     -0.0605     -0.0056      0.0038      0.0087
        70         0.0259     -0.0576      0.0017      0.0040      0.0090
        71         0.0007     -0.1310      0.0163      0.0174      0.0391
        72         0.0123     -0.0445     -0.0055      0.0022      0.0048
        73         0.0080     -0.1583     -0.0225      0.0256      0.0572
        74         0.0406     -0.0113     -0.0605      0.0054      0.0121
        75        -0.0176      0.1955      0.0339      0.0397      0.0879
        76        -0.0472     -0.0372      0.0338      0.0048      0.0105
        77        -0.1129      0.0057     -0.0152      0.0130      0.0287
        78        -0.1577     -0.0869      0.0052      0.0324      0.0713
        79         0.0396     -0.0626     -0.0883      0.0133      0.0291
        80         0.0064      0.0005     -0.0156      0.0003      0.0006
        81        -0.0122      0.0092      0.0326      0.0013      0.0028
        82        -0.0687      0.0148     -0.0764      0.0108      0.0235
        83         0.0218      0.0047     -0.0245      0.0011      0.0024
        84         0.0355      0.0456      0.0027      0.0033      0.0073
        85         0.0041      0.0162     -0.0017      0.0003      0.0006
        86         0.0026      0.0109     -0.0060      0.0002      0.0003
        87        -0.0077      0.0655     -0.0276      0.0051      0.0110
        88         0.0081     -0.0121      0.0211      0.0007      0.0014
        89        -0.0044      0.1224      0.0017      0.0150      0.0323
        90        -0.0106      0.0363      0.0116      0.0016      0.0034
        91         0.0132      0.0094      0.0499      0.0028      0.0059
        92         0.0023      0.0642      0.0219      0.0046      0.0098
        93        -0.0307     -0.0086      0.0217      0.0015      0.0032
        94        -0.0043     -0.0378      0.0163      0.0017      0.0036
        95        -0.0411      0.0159      0.0072      0.0020      0.0042
        96        -0.0140     -0.0265     -0.0281      0.0017      0.0036
        97         0.0525      0.0128     -0.0271      0.0037      0.0076
        98        -0.0892     -0.0802      0.0210      0.0148      0.0311
        99         0.0094      0.0034     -0.0118      0.0002      0.0005
       100        -0.0201      0.0750      0.0439      0.0079      0.0166
       101         0.0152      0.1257      0.0158      0.0163      0.0339
       102        -0.0501      0.0848      0.0191      0.0101      0.0209
       103         0.0034     -0.0216      0.0153      0.0007      0.0015
       104         0.0328      0.0376     -0.0081      0.0026      0.0053
       105         0.0542     -0.0204     -0.0391      0.0049      0.0101
       106        -0.0077     -0.0057      0.0046      0.0001      0.0002
       107        -0.0423     -0.0196      0.0049      0.0022      0.0045
       108         0.0095      0.0256     -0.0038      0.0008      0.0016
       109        -0.0072      0.1277     -0.0042      0.0164      0.0334
       110         0.0584     -0.0528     -0.0250      0.0068      0.0138
       111        -0.0034     -0.0149     -0.0001      0.0002      0.0005
       112        -0.0335     -0.0883     -0.0018      0.0089      0.0180
       113        -0.0308      0.0504      0.0063      0.0035      0.0071
       114         0.0674     -0.0160     -0.0074      0.0048      0.0098
       115        -0.1430      0.0654     -0.0094      0.0248      0.0500
       116        -0.0622      0.0052     -0.0302      0.0048      0.0097
       117        -0.1193     -0.0241     -0.0294      0.0157      0.0315
       118         0.0791     -0.0512     -0.0018      0.0089      0.0178
       119         0.0952     -0.0639     -0.0396      0.0147      0.0295
       120        -0.0835     -0.0284      0.0455      0.0098      0.0197
       121         0.0255     -0.0240      0.0020      0.0012      0.0025
       122         0.0220      0.1149     -0.0009      0.0137      0.0274
       123        -0.1268      0.0785      0.0123      0.0224      0.0447
       124        -0.0438      0.0089      0.0442      0.0040      0.0079
       125         0.1136     -0.1388     -0.0060      0.0322      0.0642
       126        -0.0129     -0.1699      0.0228      0.0295      0.0587
       127         0.0846     -0.1315      0.0285      0.0253      0.0502
       128         0.0474     -0.1101     -0.0134      0.0146      0.0289
       129         0.0920     -0.0599     -0.0107      0.0122      0.0240
       130        -0.0843      0.0091     -0.0144      0.0074      0.0146
       131         0.0558     -0.0409      0.0075      0.0048      0.0095
       132         0.0138      0.0223      0.0046      0.0007      0.0014
       133        -0.0341      0.0168     -0.0015      0.0014      0.0028
       134        -0.0251     -0.0148     -0.0104      0.0010      0.0019
       135        -0.0317      0.0343      0.0100      0.0023      0.0045
       136        -0.0402      0.0502     -0.0068      0.0042      0.0082
       137         0.0194     -0.0298     -0.0133      0.0014      0.0028
       138        -0.0089     -0.0068     -0.0316      0.0011      0.0022
       139         0.0310     -0.0339      0.0106      0.0022      0.0043
       140        -0.0414     -0.0117     -0.0276      0.0026      0.0051
       141         0.0313     -0.0419     -0.0096      0.0028      0.0055
       142        -0.0151     -0.0056      0.0370      0.0016      0.0031
       143         0.0036      0.0083     -0.0091      0.0002      0.0003
       144         0.0057     -0.0098      0.0182      0.0005      0.0009
       145        -0.0102     -0.0054      0.0312      0.0011      0.0021
       146        -0.0003     -0.0029     -0.0129      0.0002      0.0003
       147        -0.0805      0.0014     -0.0031      0.0065      0.0124
       148        -0.0134     -0.0348      0.0062      0.0014      0.0027
       149         0.0105     -0.0024     -0.0160      0.0004      0.0007
       150        -0.0644      0.0111      0.0125      0.0044      0.0085
 Ground to excited state transition magnetic dipole moments (Au):
       state          X           Y           Z
         1         0.0412      0.0852     -1.5539
         2         0.0455     -0.1036      0.3187
         3         0.0083     -0.0622      0.2527
         4         0.0307     -0.0588     -0.0370
         5         0.1022      0.0349     -0.0354
         6         0.0282     -0.1933     -0.2169
         7         0.2196      0.1658      0.0634
         8        -0.0272     -0.1497      1.3367
         9        -0.0460     -0.0946      1.9986
        10        -0.0549      0.5362     -1.5983
        11         0.0210     -0.4320      1.1874
        12         0.0630      0.1733     -2.6330
        13        -0.0063     -0.0287      0.2778
        14        -0.0366     -0.1017      2.1035
        15        -0.0486      0.2089      1.1819
        16         0.0626      0.4129     -2.2983
        17        -0.0160      0.3540      0.6520
        18         0.2920      0.4058     -0.4329
        19        -0.0978      0.0052     -2.1884
        20        -0.0931      0.5312     -2.3582
        21         0.1009     -0.2953     -0.3387
        22        -0.0050      0.0073     -0.1722
        23         0.0737     -0.0340      0.9050
        24         0.0420     -0.0430     -0.3822
        25        -0.0680     -0.2626      0.7549
        26         0.0209     -0.1349     -0.4195
        27         0.0288     -0.2074      0.6830
        28         0.0479      0.2372      0.6132
        29         0.1927     -0.1078     -0.4036
        30         0.0653     -0.2571      0.1639
        31         0.0897     -0.2137      1.5783
        32         0.0220     -0.1224     -0.7863
        33        -0.0375      0.8846     -5.1428
        34         0.0821     -0.0095      0.9189
        35        -0.1942      0.5642     -0.5229
        36        -0.2113     -0.2604      2.7697
        37         0.1779     -0.5155      1.9133
        38         0.0051     -0.0110      0.6376
        39        -0.0711      0.2583      1.5349
        40         0.4021      0.2194     -0.5459
        41         0.5103      0.0202      0.8660
        42        -0.1262      0.1214     -0.0158
        43         0.1130      0.1468     -0.0228
        44        -0.2234      0.0617      1.1496
        45         0.1357     -0.0719     -0.0447
        46        -0.1256     -0.2096     -0.0732
        47         0.4307     -0.1652     -0.0289
        48         0.0037     -0.2330      1.8622
        49        -0.0305      0.1697     -0.1298
        50         0.1727     -0.1676     -0.2322
        51         0.4463      0.2262     -0.0881
        52        -0.0519      0.3653      0.2031
        53         0.0716     -0.2235     -0.3890
        54        -0.1603      0.0233     -0.1607
        55        -0.0546      0.1178      0.5853
        56         0.1083     -0.0897      1.3708
        57         0.8302      0.6829     -0.5001
        58        -0.0145     -0.1412     -1.6486
        59        -0.1053     -0.1094     -0.4236
        60        -0.1380     -0.3054      0.9632
        61         0.3855      0.3867      0.7364
        62        -0.0816     -0.5059     -0.3638
        63        -0.2269     -0.3307      0.7367
        64         0.0444      0.0150     -2.0147
        65        -0.0510     -0.3109      2.3511
        66         0.3038     -0.6153     -0.1724
        67         0.1318     -0.3074      0.5351
        68         0.0872     -0.4144      2.0864
        69         0.1780      0.2294      0.0334
        70         0.3038     -0.0607      0.3445
        71         0.2188     -0.0461      2.0223
        72        -0.1387      0.4301      0.7177
        73        -0.7986      0.3148      0.7485
        74         0.2976      0.3087     -0.4061
        75        -0.1394     -0.6655      2.7695
        76        -0.2802     -0.0485      2.6473
        77        -0.1123     -0.2233      0.4850
        78         0.2474     -0.0148      1.6363
        79         0.0967     -0.5794      0.5160
        80        -0.0084      0.0370      0.1938
        81        -0.2666     -0.0713     -0.1080
        82        -0.1165      1.0731      0.1735
        83        -0.1421      0.3083     -0.3568
        84         0.0789      1.0409      0.1174
        85         0.2005     -0.0296      0.7020
        86        -0.2005     -0.5373      0.4646
        87         0.0380     -0.6852      0.0040
        88         0.1340     -0.1901      0.5910
        89         0.0385      0.0712     -0.4509
        90        -0.1496      0.0701     -0.0291
        91        -0.1823     -0.3233     -0.1371
        92        -0.0107     -0.5413     -0.2251
        93         0.1394     -0.3790      0.7540
        94         0.0089      0.6231     -0.0523
        95        -0.3442      0.5666      0.5933
        96         0.2049     -0.6526      0.4070
        97        -0.0663      0.5145     -1.1261
        98        -0.2111      0.1944      1.2480
        99        -0.1041      0.1423     -0.3468
       100         0.0827     -0.3998      1.0779
       101        -0.0858     -0.2960      0.5256
       102         0.5353     -0.2200      1.3020
       103        -0.0883     -0.2812     -0.7588
       104         0.2799     -0.6452     -0.5881
       105         0.1401     -0.3858     -0.2851
       106        -0.7543     -0.0699      0.7050
       107        -0.4226     -0.4161     -0.2709
       108         0.0964     -0.6874      0.6243
       109        -0.4205      0.1120      2.2033
       110         0.0238      0.3070     -0.4853
       111        -0.4095     -0.4240     -1.5176
       112        -0.0486      0.1288     -0.2321
       113         0.0041     -0.1302      0.3396
       114         0.7834      0.6498     -0.0567
       115         0.4741      0.3821      0.0855
       116        -0.1027      0.6379     -0.7396
       117        -0.4047      0.0065     -0.8627
       118         0.0385     -0.0447      0.0370
       119        -0.6967     -0.1354      0.8457
       120        -0.0434      0.1863     -1.3109
       121         0.1880      0.4881      0.5258
       122         0.0681     -0.3413      0.0273
       123        -0.2546     -0.6283     -1.2189
       124         0.1233      0.9126      0.2289
       125         0.1380      0.4057      0.2512
       126         0.0177     -0.5372      1.0955
       127         0.0995      0.2038      1.1396
       128        -0.3125      0.2522      0.4747
       129        -0.1026     -0.1912      0.5313
       130        -0.3017      0.3960     -0.0808
       131         0.0408      0.3278      0.1220
       132         0.0320     -0.4279     -0.0620
       133        -0.1238      0.3237     -0.1909
       134        -0.0341      0.0634     -0.2753
       135         0.3398     -0.2813      0.1332
       136        -0.3058      0.4181     -0.4505
       137        -0.2924      0.2107      0.1503
       138        -0.0538      0.2395      0.1504
       139        -0.1417      0.5504      0.2119
       140         0.7545      0.4369     -0.2460
       141        -0.0863      0.3947     -0.3441
       142         0.0544     -0.1036      0.0200
       143         0.0191     -0.0311     -0.3071
       144         0.2786      0.3582      0.0799
       145        -0.5363     -0.0914      0.2628
       146         0.2828      0.0639     -0.0683
       147         0.1947     -0.3174     -0.1984
       148         0.1303      0.2286     -0.3269
       149         0.2067     -0.1619     -0.0489
       150        -0.2835      0.4460      0.4573
 Ground to excited state transition velocity quadrupole moments (Au):
       state          XX          YY          ZZ          XY          XZ          YZ
         1        -0.2225      0.0403     -0.0013     -0.1282      0.0338     -0.0445
         2        -9.5266     -0.4638     -0.0474      0.4882     -0.0169     -0.0239
         3        -3.1263      0.0673     -0.0145      0.1693     -0.0004     -0.0014
         4        -0.7715     -0.1297     -0.0009     -0.5097      0.0557     -0.0024
         5         0.3356      0.0023      0.0041     -0.5778     -0.1292      0.0240
         6        -0.3888     -0.0211      0.0052     -0.0669     -0.1366     -0.0037
         7         0.1009      0.0010     -0.0049      0.0279      0.0931     -0.0399
         8        -0.0780     -0.1403      0.0041      1.8509      0.1323      0.0154
         9         4.5288     -0.1693     -0.0064      1.2129      0.1372      0.0028
        10         0.4456     -0.0663      0.0049     -1.3441     -0.4258      0.0219
        11        -0.0060      0.1359      0.0043      0.5936      0.2606      0.0076
        12        -3.1119     -0.0113     -0.0172     -1.6648     -0.1298     -0.0012
        13        -2.9463     -0.0854      0.0059      0.2344      0.0195     -0.0101
        14        -0.4951     -0.3110      0.0116      2.4865     -0.0003      0.0583
        15         2.6910     -0.3782     -0.0066      1.7065     -0.1535     -0.0671
        16        10.7205      0.1091     -0.0572     -2.3077     -0.1700     -0.0301
        17        -2.0718      0.0032      0.0087      0.4564      0.0278      0.0378
        18        -0.4657      0.2379     -0.0013     -0.3574     -0.0090     -0.0213
        19         0.3943      0.6485     -0.0163     -1.6462     -0.1152     -0.0230
        20         1.0064     -0.0943     -0.0208     -1.8428     -0.4251     -0.0605
        21        -2.2380      0.6483      0.0137     -1.0462      0.2318      0.0641
        22        -0.2035      0.0097      0.0012     -0.2166     -0.0435      0.0152
        23         0.1430     -0.1045      0.0330      0.9724      0.0291      0.0548
        24        -0.5054      0.4583      0.0009     -0.7130      0.0271      0.0628
        25        -1.3266      0.2886      0.0103     -0.0028      0.1770      0.0303
        26        -0.8396     -0.1344     -0.0048     -0.5495      0.0991      0.0377
        27        -0.8024      0.0071     -0.0032      0.7977      0.1493      0.0456
        28         1.1551     -0.0709     -0.0057      1.2902     -0.1782     -0.0569
        29        -0.1847     -0.0064     -0.0010     -0.7796      0.0454      0.0749
        30         0.3574     -0.0350      0.0193      0.1388      0.1738      0.0756
        31         3.0760     -0.0902     -0.0251      1.2455      0.2375      0.0286
        32        -9.9838      0.6630      0.0030      1.2797     -0.0537     -0.0056
        33        -8.7410     -0.0766      0.0238     -4.8944     -0.9005      0.0124
        34         3.4285     -0.1068     -0.0356      0.3036      0.0741      0.0169
        35         0.7615     -0.1525     -0.0770     -0.2673     -0.4956     -0.1664
        36        -4.8329      0.0354      0.0286      2.6161      0.2080     -0.0559
        37        -3.6790      0.0448     -0.0087      1.8412      0.5506      0.1659
        38        -0.0705     -0.0801      0.0606      0.6821     -0.0247      0.0955
        39         2.6674     -1.0813      0.0020      1.7072     -0.2465     -0.0504
        40         0.5113     -0.2233      0.0367     -0.6346     -0.0925      0.0748
        41         0.0455      0.0286      0.0895      0.8718      0.0475      0.1281
        42        -2.0979      0.0805     -0.0132      0.5607     -0.1620     -0.0990
        43        -0.5767     -0.1464      0.0326      0.5913     -0.1712      0.0419
        44         1.5231      0.0604      0.0023      1.3593     -0.0106     -0.0771
        45         2.2449     -0.1282      0.0043      0.0043      0.0337      0.0024
        46        -2.2377      0.0364      0.0355     -0.0316      0.2972     -0.0147
        47         0.3104      0.0037     -0.0008      0.0625     -0.0654      0.0943
        48        -2.2427     -0.0256      0.0276      2.3337      0.2979      0.0585
        49        -0.0856      0.1101      0.0071     -0.1955     -0.0787      0.0513
        50         0.3906     -0.0482      0.0405     -0.0987      0.2270      0.0849
        51         0.9483     -0.0498      0.0261      0.0042     -0.1986      0.0653
        52        -0.3013      0.0260      0.1165      0.2235     -0.1984      0.0341
        53        -0.1716     -0.0599      0.0349     -0.1949      0.0935      0.0385
        54        -1.2652     -0.0179     -0.0633     -0.3199      0.2655     -0.1731
        55        -0.5692     -0.0211      0.0111      0.7129      0.0080     -0.1724
        56        -4.7939     -0.1198      0.0032      0.9610     -0.0334      0.0209
        57         1.0227     -0.0341      0.0123     -0.5200     -0.3779      0.1485
        58        -0.1667      0.0457     -0.0021     -2.3077      0.0583      0.0124
        59         2.0467     -0.0973     -0.0195     -0.8633      0.0760     -0.0960
        60         1.9933     -0.0601     -0.0360      0.9672      0.3330     -0.0613
        61         1.2474     -0.4333      0.0268      0.6915     -0.2908      0.1063
        62        -1.5876      0.1183      0.0082     -0.4832      0.3722     -0.1742
        63        -0.1739     -0.3755     -0.0047      0.5928      0.4212     -0.1440
        64         0.7584      0.6207      0.0481     -1.6547     -0.0095     -0.0370
        65        -4.9549     -0.2859     -0.0278      2.5174      0.3811      0.0020
        66        -0.0533      0.1065      0.0097     -0.0056      0.7338      0.0486
        67         0.7211     -0.2041     -0.0021      0.5954      0.4093      0.0105
        68        -3.1316      0.4195      0.0108      2.0364      0.3786      0.0351
        69         0.8836     -0.0506      0.0169      0.0568     -0.1752      0.0394
        70         0.2940     -0.2723      0.0258      0.3382     -0.0314      0.0980
        71         0.3080     -0.2314      0.0605      2.2095      0.1145     -0.0505
        72         0.1036      0.0366     -0.0143      0.5368     -0.5270     -0.0008
        73         1.3409     -0.3130     -0.0035      1.0871     -0.4095     -0.2402
        74         1.9899     -0.1181     -0.1023     -0.6370     -0.3482     -0.0255
        75        -1.7235      0.6682      0.0155      2.7282      0.6325      0.0469
        76         5.0183     -0.2494     -0.0276      1.6404     -0.0163     -0.1669
        77        -0.4261      0.3449      0.0274      0.1239      0.4906     -0.0713
        78         1.5702     -0.0369      0.0568      1.2272      0.0854      0.2127
        79         1.2862     -0.2496      0.0838      0.6994      0.6174      0.1133
        80         0.1073      0.0036     -0.0245      0.0961     -0.0532      0.0477
        81         0.5080      0.0296     -0.0574     -0.3958      0.0085     -0.1759
        82        -0.4812      0.1695     -0.1165     -0.0749     -1.0380     -0.2414
        83        -0.0518     -0.0519      0.0295     -0.2934      0.0603     -0.0102
        84        -0.8004     -0.4101     -0.0219      0.4496     -1.0215     -0.0318
        85        -1.1308     -0.0489     -0.0552      0.8367      0.1131      0.0552
        86        -0.0003     -0.0816      0.0080      0.6218      0.4500     -0.0140
        87         0.2497     -0.0836     -0.0157      0.0791      0.6819      0.0635
        88        -1.0918     -0.0551      0.0034      0.4885      0.0867      0.0946
        89         1.5794      0.4325      0.0734     -1.1650     -0.2035      0.0207
        90         0.9704      0.3027      0.0151     -0.3065     -0.0956     -0.0476
        91        -0.1008      0.0484     -0.0084      0.0412      0.2345     -0.1515
        92        -0.7283      0.0881      0.0237     -0.3959      0.4633     -0.0442
        93         0.2664     -0.1307      0.0477      0.8877      0.2240      0.0202
        94        -0.5596      0.0933     -0.0408     -0.1777     -0.3913     -0.0153
        95         0.2169      0.0149     -0.0025      0.5677     -0.2372     -0.1389
        96         0.6121     -0.0825      0.0109      0.2054      0.2372      0.0133
        97        -0.7211     -0.1008     -0.0634     -0.9549     -0.3548     -0.0630
        98         2.2621      0.0796      0.0459      0.9422     -0.1004     -0.0214
        99         0.0882      0.0126     -0.0092     -0.3536     -0.1142     -0.0353
       100        -0.7813      0.0890      0.0910      1.0060      0.5112      0.2175
       101        -0.7238      0.0131      0.0821      0.4918      0.1170      0.1015
       102        -0.3604     -0.2591      0.0290      1.3161      0.1788      0.1542
       103        -0.5994     -0.2009     -0.0341     -0.1851      0.2464     -0.0808
       104        -1.3188      0.0513     -0.0021     -0.5731      0.5529      0.2111
       105        -0.0400     -0.3449     -0.0186     -0.0077      0.2100      0.0899
       106         0.3156      0.0667     -0.0425      0.2394      0.1871     -0.2562
       107        -0.3478     -0.1264      0.0192     -0.0310      0.3543     -0.1044
       108        -0.1150     -0.0204     -0.0483      0.4214      0.5792     -0.0185
       109         0.1326      0.2091     -0.0989      1.2214     -0.3141     -0.2051
       110         0.2246     -0.0159     -0.0009     -0.8004     -0.2739     -0.0469
       111        -1.2512      0.1212     -0.0123     -1.7023      0.2289     -0.0166
       112         1.8023     -0.7451     -0.0005     -0.4980     -0.2239     -0.0367
       113         1.4498      0.2997     -0.0314      0.2027      0.2386      0.0089
       114        -0.9019     -0.0685      0.0027      0.1042     -0.4334      0.1522
       115         1.7075      0.2797     -0.0109     -1.1121     -0.2210      0.0890
       116        -2.5333      0.3538     -0.0269     -0.1027     -0.3317     -0.1564
       117        -2.0657      0.1709     -0.0697      0.1197      0.1102     -0.1414
       118         0.2062     -0.3084      0.0335     -0.1715     -0.0869      0.0256
       119         0.0914     -0.4638     -0.0519      1.1557     -0.0162     -0.1509
       120        -2.7421     -0.0187      0.0137     -0.2466     -0.0111     -0.0344
       121         0.1500      0.1888      0.0146      0.2100     -0.4844     -0.0074
       122         1.2481      0.0363     -0.0280     -0.7669      0.2906     -0.0323
       123        -2.2792      0.0443     -0.0070     -0.2863      0.7140     -0.0089
       124        -1.3078     -0.1551     -0.0392      0.9442     -0.6515     -0.0686
       125         1.1982     -0.3809      0.0077     -0.3498     -0.3889      0.0487
       126        -3.8853     -0.3151      0.0957      3.2479      0.7983      0.0977
       127         1.2429      0.0612      0.0271      0.6749     -0.5547     -0.0261
       128        -0.3182     -0.5347     -0.0374      1.0086     -0.1881     -0.3030
       129         0.0262     -0.2859      0.0432      0.3160      0.2207      0.0055
       130        -0.8642      0.4895      0.0417      0.1232     -0.1406     -0.0582
       131        -0.1654     -0.2587     -0.0487      0.4495     -0.3101      0.0908
       132         1.8167      0.0756      0.0014     -0.7130      0.3492      0.0678
       133         0.6903      0.1258     -0.0096     -0.4159     -0.1412     -0.0967
       134         0.2109     -0.3003     -0.0162     -0.3729     -0.1181     -0.0667
       135        -0.8109     -0.0424      0.0104      0.2470      0.1285      0.0819
       136        -0.5476     -0.0733      0.0013     -0.2549      0.0492      0.0415
       137        -0.7217      0.0100     -0.0306      0.6099     -0.1825     -0.0312
       138         1.0222     -0.0503     -0.0047      0.1021     -0.0726      0.0426
       139        -0.0258     -0.1539     -0.0120      0.2865     -0.3434      0.0539
       140        -1.2436     -0.1200      0.0566     -0.2420     -0.2709      0.1538
       141        -0.1934     -0.2651     -0.0314     -0.0306     -0.5116     -0.0714
       142         0.5327      0.0066      0.0520     -0.2321      0.2131     -0.0805
       143         1.0204      0.0740     -0.0380     -0.6873      0.0572     -0.0779
       144         0.1293     -0.1959      0.0109      0.2920     -0.2455      0.1366
       145        -0.4612      0.1034      0.0021      0.1000      0.0082     -0.0569
       146        -0.2026     -0.0572      0.0333      0.0344     -0.0474      0.0518
       147        -1.2309      0.0316     -0.0012     -0.4172      0.1643      0.0836
       148        -0.7627     -0.0549     -0.0083     -0.5338     -0.2099     -0.0502
       149         0.5148     -0.0044      0.0219      0.1170      0.1982     -0.0466
       150        -0.3144      0.3574      0.0014     -0.0208     -0.3967     -0.1249
 <0|del|b> * <b|rxdel|0> + <0|del|b> * <b|delr+rdel|0>
 Rotatory Strengths (R) in cgs (10**-40 erg-esu-cm/Gauss)
       state          XX          YY          ZZ    R(velocity)    E-M Angle
         1        31.4777     32.5883   -220.5302    -52.1547       91.08
         2        27.3357     -1.4264     33.6682     19.8592       74.40
         3        14.0514      0.3735     14.2431      9.5560       75.84
         4       -16.0358      3.0791      0.7043     -4.0841      131.10
         5         1.0143     -8.1906     13.3487      2.0575       76.25
         6         7.8713      2.4901     11.4825      7.2813       38.90
         7        -1.1569     -2.2832     -5.2475     -2.8959      171.26
         8        11.7703     -7.9586     -6.5470     -0.9118       90.38
         9        34.9452     16.8759     11.5199     21.1137       87.29
        10      -105.2395     18.9239    -29.0327    -38.4494       96.05
        11       -80.1571     18.4512    -34.8468    -32.1842      100.66
        12        77.3154     21.9337     12.0879     37.1124       82.37
        13         3.1349      1.5748     -0.2639      1.4819       84.38
        14       -18.6605      9.7921    -30.3417    -13.0700       91.46
        15       -75.0619    -51.9175      2.8309    -41.3828       95.77
        16       275.0198      2.1066     87.8937    121.6734       76.83
        17       -15.4210     -2.8208     -5.2230     -7.8216      103.29
        18        11.3206     -4.1074     10.3785      5.8639       70.48
        19       -15.8400     -6.0296    -18.2460    -13.3718       93.27
        20        64.4374     13.9487     -7.2809     23.7017       78.35
        21      -142.1009    -15.5857    -20.3090    -59.3319      129.95
        22        -1.6092      0.0308      0.2252     -0.4511      102.79
        23         4.5623      9.5907      1.7796      5.3109       85.27
        24        13.9680     -7.9501      1.1340      2.3840       78.27
        25       -33.8390     31.1744      5.5038      0.9464       89.54
        26       -42.6053      2.0635     -5.9772    -15.5063      109.43
        27       -32.0454      0.2321     -1.7422    -11.1852      124.79
        28        13.2320    -17.8328      4.6848      0.0280       90.00
        29       -18.5848      5.2131     -1.7098     -5.0272      116.87
        30         7.0962      4.3779      1.7057      4.3932       60.42
        31       -43.4419     -5.2068     -0.3505    -16.3331       99.57
        32         1.2820    -25.7610     -1.2046     -8.5612       91.42
        33         0.0734     26.9059     21.1905     16.0566       89.51
        34       -15.8143    -20.3928     -6.9442    -14.3838       99.33
        35       -27.0247    -16.3551     -3.0860    -15.4886      123.47
        36       426.7286     47.4575     20.5642    164.9167       54.84
        37       -32.5716    -35.7652     -3.3973    -23.9114       98.64
        38        -2.7114     -0.2048      0.7602     -0.7187       96.73
[...]
 Alpha virt. eigenvalues --    0.33834   0.34421   0.34584   0.34960   0.35398
 Alpha virt. eigenvalues --    0.35663   0.35720   0.35883   0.36410   0.36672
 Alpha virt. eigenvalues --    0.36837   0.36976   0.37204   0.37233   0.37636
 Alpha virt. eigenvalues --    0.38252   0.38596   0.38941   0.39129   0.39202
 Alpha virt. eigenvalues --    0.39760   0.40294   0.41327   0.41538   0.41872
 Alpha virt. eigenvalues --    0.42326   0.42709   0.42835   0.43119   0.43231
 Alpha virt. eigenvalues --    0.43542   0.43664   0.44378   0.44786   0.44915
 Alpha virt. eigenvalues --    0.45036   0.45845   0.45994   0.46196   0.46815
 Alpha virt. eigenvalues --    0.47383   0.47496   0.47796   0.47958   0.48334
 Alpha virt. eigenvalues --    0.48429   0.48907   0.49333   0.49660   0.49836
 Alpha virt. eigenvalues --    0.50205   0.50352   0.50528   0.50808   0.51071
 Alpha virt. eigenvalues --    0.51220   0.51385   0.51415   0.51670   0.51759
 Alpha virt. eigenvalues --    0.52005   0.52351   0.53153   0.53392   0.53640
 Alpha virt. eigenvalues --    0.54005   0.54278   0.54484   0.54604   0.54933
 Alpha virt. eigenvalues --    0.55643   0.56004   0.56710   0.56966   0.57183
 Alpha virt. eigenvalues --    0.57632   0.58066   0.58680   0.59054   0.59262
 Alpha virt. eigenvalues --    0.59582   0.59966   0.60215   0.61036   0.61861
 Alpha virt. eigenvalues --    0.62075   0.62340   0.62803   0.63122   0.63635
 Alpha virt. eigenvalues --    0.63911   0.64577   0.64938   0.65454   0.65959
 Alpha virt. eigenvalues --    0.66079   0.66255   0.66961   0.67056   0.67585
 Alpha virt. eigenvalues --    0.68063   0.68384   0.68739   0.68980   0.69381
 Alpha virt. eigenvalues --    0.69670   0.70586   0.70729   0.71337   0.71704
 Alpha virt. eigenvalues --    0.72042   0.72180   0.72985   0.73490   0.73811
 Alpha virt. eigenvalues --    0.74110   0.74531   0.75073   0.75135   0.75711
 Alpha virt. eigenvalues --    0.76143   0.76618   0.76703   0.76954   0.77289
 Alpha virt. eigenvalues --    0.77342   0.77799   0.77817   0.78387   0.79184
 Alpha virt. eigenvalues --    0.79507   0.79594   0.79973   0.80519   0.81247
 Alpha virt. eigenvalues --    0.81404   0.81758   0.82647   0.83004   0.83100
 Alpha virt. eigenvalues --    0.83617   0.83991   0.84565   0.84706   0.85108
 Alpha virt. eigenvalues --    0.85466   0.85949   0.87340   0.87781   0.87881
 Alpha virt. eigenvalues --    0.88344   0.88841   0.90134   0.90479   0.91099
 Alpha virt. eigenvalues --    0.91722   0.91863   0.92383   0.93065   0.93550
 Alpha virt. eigenvalues --    0.94318   0.94709   0.94999   0.95301   0.95356
 Alpha virt. eigenvalues --    0.96028   0.96067   0.96530   0.96870   0.97717
 Alpha virt. eigenvalues --    0.98560   0.99203   0.99824   1.00047   1.00392
 Alpha virt. eigenvalues --    1.01126   1.02270   1.02347   1.03703   1.04307
 Alpha virt. eigenvalues --    1.04479   1.04759   1.05828   1.06673   1.08161
 Alpha virt. eigenvalues --    1.08461   1.08665   1.09865   1.10106   1.10757
 Alpha virt. eigenvalues --    1.11207   1.12334   1.12890   1.13174   1.13998
 Alpha virt. eigenvalues --    1.14330   1.15557   1.15914   1.16393   1.16658
 Alpha virt. eigenvalues --    1.17207   1.18150   1.18686   1.19141   1.19360
 Alpha virt. eigenvalues --    1.19660   1.20377   1.20807   1.21073   1.21449
 Alpha virt. eigenvalues --    1.23018   1.23275   1.24082   1.24673   1.24768
 Alpha virt. eigenvalues --    1.25122   1.25758   1.26707   1.27264   1.27713
 Alpha virt. eigenvalues --    1.28495   1.29082   1.29407   1.29871   1.30222
 Alpha virt. eigenvalues --    1.31253   1.31351   1.31492   1.32489   1.32909
 Alpha virt. eigenvalues --    1.33077   1.33985   1.34469   1.34723   1.35401
 Alpha virt. eigenvalues --    1.36159   1.36367   1.36587   1.37276   1.38127
 Alpha virt. eigenvalues --    1.39005   1.39672   1.39927   1.40414   1.40977
 Alpha virt. eigenvalues --    1.41315   1.42798   1.43092   1.44752   1.45278
 Alpha virt. eigenvalues --    1.46481   1.46574   1.47711   1.47873   1.48409
 Alpha virt. eigenvalues --    1.49017   1.49174   1.49871   1.50374   1.51660
 Alpha virt. eigenvalues --    1.52029   1.52532   1.53497   1.54210   1.54727
 Alpha virt. eigenvalues --    1.54860   1.55083   1.55348   1.56136   1.56324
 Alpha virt. eigenvalues --    1.56873   1.57618   1.58378   1.58694   1.59280
 Alpha virt. eigenvalues --    1.59784   1.60254   1.60656   1.61366   1.61569
 Alpha virt. eigenvalues --    1.61922   1.62129   1.62373   1.62494   1.62681
 Alpha virt. eigenvalues --    1.62899   1.63111   1.63272   1.64182   1.64661
 Alpha virt. eigenvalues --    1.64836   1.65032   1.65784   1.66020   1.66577
 Alpha virt. eigenvalues --    1.67026   1.67233   1.67481   1.68444   1.68834
 Alpha virt. eigenvalues --    1.69535   1.69565   1.70156   1.70649   1.71194
 Alpha virt. eigenvalues --    1.71500   1.72088   1.72552   1.72909   1.73174
 Alpha virt. eigenvalues --    1.73704   1.73877   1.75150   1.75326   1.75807
 Alpha virt. eigenvalues --    1.76088   1.76292   1.76912   1.77518   1.77965
 Alpha virt. eigenvalues --    1.78845   1.79367   1.80396   1.81503   1.81749
 Alpha virt. eigenvalues --    1.81863   1.82501   1.83792   1.83999   1.84340
 Alpha virt. eigenvalues --    1.84877   1.85541   1.86466   1.86639   1.87166
 Alpha virt. eigenvalues --    1.87576   1.88154   1.88531   1.88581   1.89422
 Alpha virt. eigenvalues --    1.89954   1.90428   1.90910   1.91213   1.91519
 Alpha virt. eigenvalues --    1.91922   1.92246   1.93097   1.93481   1.93893
 Alpha virt. eigenvalues --    1.94297   1.94653   1.94919   1.95651   1.95751
 Alpha virt. eigenvalues --    1.96851   1.97064   1.98051   1.98708   1.99315
 Alpha virt. eigenvalues --    1.99589   2.01431   2.01905   2.02964   2.03619
 Alpha virt. eigenvalues --    2.04055   2.04388   2.04666   2.05043   2.06532
 Alpha virt. eigenvalues --    2.07698   2.08138   2.08529   2.08995   2.09464
 Alpha virt. eigenvalues --    2.10435   2.11889   2.12649   2.13931   2.14595
 Alpha virt. eigenvalues --    2.15009   2.15860   2.16361   2.17193   2.17768
 Alpha virt. eigenvalues --    2.18190   2.19066   2.19223   2.19678   2.20714
 Alpha virt. eigenvalues --    2.21228   2.22616   2.22890   2.23937   2.24746
 Alpha virt. eigenvalues --    2.24972   2.25305   2.25826   2.26268   2.26489
 Alpha virt. eigenvalues --    2.26758   2.26994   2.28501   2.29001   2.29237
 Alpha virt. eigenvalues --    2.30572   2.31483   2.31582   2.32974   2.34129
 Alpha virt. eigenvalues --    2.34634   2.34977   2.35392   2.36278   2.36926
 Alpha virt. eigenvalues --    2.37893   2.38354   2.39010   2.39490   2.40497
 Alpha virt. eigenvalues --    2.41593   2.42159   2.43072   2.43615   2.44986
 Alpha virt. eigenvalues --    2.45094   2.45718   2.46621   2.47246   2.47690
 Alpha virt. eigenvalues --    2.48217   2.49474   2.50520   2.51532   2.52398
 Alpha virt. eigenvalues --    2.53021   2.53880   2.54630   2.54960   2.56145
 Alpha virt. eigenvalues --    2.56523   2.56904   2.57349   2.58023   2.58691
 Alpha virt. eigenvalues --    2.59791   2.60303   2.60945   2.61094   2.62579
 Alpha virt. eigenvalues --    2.63541   2.64073   2.64323   2.64932   2.65618
 Alpha virt. eigenvalues --    2.66116   2.66412   2.66814   2.66923   2.67369
 Alpha virt. eigenvalues --    2.68019   2.68143   2.69266   2.69444   2.69895
 Alpha virt. eigenvalues --    2.70375   2.70612   2.71042   2.71727   2.71933
 Alpha virt. eigenvalues --    2.72597   2.72896   2.73087   2.73764   2.73891
 Alpha virt. eigenvalues --    2.74290   2.74439   2.74616   2.75525   2.75942
 Alpha virt. eigenvalues --    2.76303   2.76908   2.77514   2.77723   2.77965
 Alpha virt. eigenvalues --    2.78425   2.78745   2.79041   2.79949   2.80124
 Alpha virt. eigenvalues --    2.80688   2.81169   2.81733   2.82951   2.83813
 Alpha virt. eigenvalues --    2.83956   2.84339   2.84870   2.85495   2.85837
 Alpha virt. eigenvalues --    2.86071   2.86601   2.86966   2.87378   2.87998
 Alpha virt. eigenvalues --    2.88745   2.89882   2.90498   2.91098   2.91381
 Alpha virt. eigenvalues --    2.91454   2.91810   2.92231   2.92883   2.92997
 Alpha virt. eigenvalues --    2.93066   2.93779   2.94330   2.95102   2.95741
 Alpha virt. eigenvalues --    2.95971   2.96525   2.97560   2.97893   2.98279
 Alpha virt. eigenvalues --    2.99179   2.99926   3.00150   3.00663   3.01173
 Alpha virt. eigenvalues --    3.01492   3.01665   3.01936   3.02473   3.03773
 Alpha virt. eigenvalues --    3.04344   3.05412   3.05578   3.06386   3.07192
 Alpha virt. eigenvalues --    3.07833   3.08618   3.09039   3.09127   3.09403
 Alpha virt. eigenvalues --    3.10107   3.11132   3.11840   3.12671   3.13225
 Alpha virt. eigenvalues --    3.13473   3.13877   3.14168   3.14994   3.15791
 Alpha virt. eigenvalues --    3.16304   3.16593   3.17052   3.17480   3.17916
 Alpha virt. eigenvalues --    3.18142   3.18424   3.18657   3.19070   3.19418
 Alpha virt. eigenvalues --    3.19508   3.19762   3.20327   3.20826   3.20901
 Alpha virt. eigenvalues --    3.21183   3.21621   3.22438   3.22806   3.23322
 Alpha virt. eigenvalues --    3.23440   3.24085   3.24225   3.24877   3.25545
 Alpha virt. eigenvalues --    3.25875   3.26279   3.26689   3.27535   3.27878
 Alpha virt. eigenvalues --    3.28101   3.28493   3.29007   3.29228   3.29968
 Alpha virt. eigenvalues --    3.30440   3.31516   3.32021   3.32200   3.32542
 Alpha virt. eigenvalues --    3.33260   3.33852   3.34186   3.34360   3.35183
 Alpha virt. eigenvalues --    3.35886   3.36640   3.36813   3.37223   3.37838
 Alpha virt. eigenvalues --    3.38212   3.39185   3.39629   3.40153   3.40526
 Alpha virt. eigenvalues --    3.40920   3.41257   3.41977   3.42450   3.43146
 Alpha virt. eigenvalues --    3.43386   3.43562   3.44345   3.44729   3.45113
 Alpha virt. eigenvalues --    3.45645   3.46276   3.46514   3.47094   3.47339
 Alpha virt. eigenvalues --    3.47826   3.48592   3.48918   3.49436   3.49669
 Alpha virt. eigenvalues --    3.49907   3.50510   3.51222   3.51249   3.51981
 Alpha virt. eigenvalues --    3.52086   3.52319   3.52638   3.53578   3.54116
 Alpha virt. eigenvalues --    3.54332   3.55134   3.55309   3.56040   3.57008
 Alpha virt. eigenvalues --    3.57508   3.58007   3.58584   3.58799   3.58884
 Alpha virt. eigenvalues --    3.59935   3.60331   3.60839   3.61688   3.61862
 Alpha virt. eigenvalues --    3.62506   3.63074   3.64488   3.65188   3.65530
 Alpha virt. eigenvalues --    3.66431   3.66713   3.67077   3.68092   3.68425
 Alpha virt. eigenvalues --    3.69474   3.70073   3.70457   3.71775   3.71896
 Alpha virt. eigenvalues --    3.72420   3.72830   3.74195   3.74965   3.75605
 Alpha virt. eigenvalues --    3.77044   3.77418   3.78091   3.78697   3.79003
 Alpha virt. eigenvalues --    3.79349   3.79746   3.81984   3.85053   3.85531
 Alpha virt. eigenvalues --    3.86878   3.87238   3.88083   3.88572   3.89368
 Alpha virt. eigenvalues --    3.89866   3.91284   3.92698   3.93475   3.94852
 Alpha virt. eigenvalues --    3.95371   3.96992   3.97463   3.98301   3.99316
 Alpha virt. eigenvalues --    3.99858   4.00592   4.01631   4.02388   4.02799
 Alpha virt. eigenvalues --    4.03190   4.03900   4.04587   4.04965   4.06269
 Alpha virt. eigenvalues --    4.06909   4.08085   4.09240   4.09638   4.09872
 Alpha virt. eigenvalues --    4.13602   4.14001   4.14981   4.17010   4.17546
 Alpha virt. eigenvalues --    4.18812   4.19052   4.20620   4.22283   4.23237
 Alpha virt. eigenvalues --    4.23624   4.23897   4.24124   4.24962   4.25513
 Alpha virt. eigenvalues --    4.26566   4.27531   4.27738   4.28002   4.29729
 Alpha virt. eigenvalues --    4.29980   4.30429   4.30873   4.31759   4.32509
 Alpha virt. eigenvalues --    4.34530   4.35119   4.36112   4.36560   4.36928
 Alpha virt. eigenvalues --    4.37372   4.38209   4.38659   4.40589   4.41834
 Alpha virt. eigenvalues --    4.42983   4.43631   4.44341   4.45747   4.47135
 Alpha virt. eigenvalues --    4.47922   4.49278   4.49977   4.51684   4.51783
 Alpha virt. eigenvalues --    4.53330   4.55470   4.55847   4.58995   4.59722
 Alpha virt. eigenvalues --    4.60938   4.61963   4.63121   4.64239   4.66739
 Alpha virt. eigenvalues --    4.67126   4.67510   4.67798   4.68156   4.69260
 Alpha virt. eigenvalues --    4.72407   4.76412   4.78197   4.78866   4.80504
 Alpha virt. eigenvalues --    4.81249   4.84351   4.85135   4.86110   4.86786
 Alpha virt. eigenvalues --    4.86926   4.87592   4.88452   4.91837   4.93345
 Alpha virt. eigenvalues --    4.95289   4.96499   4.98633   5.00030   5.03860
 Alpha virt. eigenvalues --    5.04329   5.05123   5.06152   5.06901   5.08410
 Alpha virt. eigenvalues --    5.09537   5.11649   5.14128   5.16521   5.17049
 Alpha virt. eigenvalues --    5.17879   5.18913   5.20152   5.20659   5.23561
 Alpha virt. eigenvalues --    5.25293   5.25986   5.27314   5.28474   5.30375
 Alpha virt. eigenvalues --    5.33013   5.33899   5.34743   5.35377   5.37884
 Alpha virt. eigenvalues --    5.41157   5.42530   5.43896   5.47601   5.49924
 Alpha virt. eigenvalues --    5.51625   5.53803   5.60072   5.61455   5.62293
 Alpha virt. eigenvalues --    5.62860   5.74068   5.75123   5.92452   5.94827
 Alpha virt. eigenvalues --    5.99780   6.03350   6.07629   6.09089   6.20308
 Alpha virt. eigenvalues --    6.22254   8.96107   8.96395   9.54094   9.55377
 Alpha virt. eigenvalues --    9.58688   9.60304  20.39799  20.41255  22.25175
 Alpha virt. eigenvalues --   22.26246  22.44390  22.46803  22.63364  22.65230
 Alpha virt. eigenvalues --   22.66572  22.68325  22.70833  22.70903  22.72188
 Alpha virt. eigenvalues --   22.72518  22.75337  22.77148  22.80267  22.80808
 Alpha virt. eigenvalues --   22.83410  22.91914  22.98153  22.98187  23.01878
 Alpha virt. eigenvalues --   23.08717  23.12726  23.45790  23.47267  33.14971
 Alpha virt. eigenvalues --   33.15665
          Condensed to atoms (all electrons):
 Mulliken charges:
               1
     1  C   -0.399642
     2  C   -0.043067
     3  C   -0.283813
     4  C   -0.048553
     5  C    0.260471
     6  S    0.045491
     7  C   -0.026374
     8  C    0.212829
     9  N    0.031576
    10  C   -0.182161
    11  C   -0.177231
    12  C   -0.125927
    13  C   -0.329868
    14  C   -0.168681
    15  C   -0.394363
    16  C   -0.304128
    17  C   -0.007793
    18  C   -0.413573
    19  C    0.250556
    20  S    0.074667
    21  C   -0.037011
    22  C    0.220683
    23  N    0.039905
    24  C   -0.180992
    25  C   -0.171200
    26  C   -0.133127
    27  C   -0.328105
    28  C   -0.201278
    29  C   -0.401454
    30  H    0.188811
    31  H    0.167737
    32  H    0.158211
    33  H    0.172838
    34  H    0.176940
    35  H    0.171666
    36  H    0.172804
    37  H    0.186433
    38  H    0.167597
    39  H    0.165980
    40  H    0.150602
    41  H    0.148103
    42  H    0.147004
    43  H    0.158049
    44  H    0.185526
    45  H    0.179693
    46  H    0.177457
    47  H    0.172457
    48  H    0.173286
    49  H    0.192570
    50  H    0.176873
    51  H    0.173679
    52  H    0.149785
    53  H    0.152964
    54  H    0.155100
 Sum of Mulliken charges =   1.00000
 Mulliken charges with hydrogens summed into heavy atoms:
               1
     1  C   -0.210832
     2  C    0.124669
     3  C   -0.125603
     4  C    0.124284
     5  C    0.260471
     6  S    0.045491
     7  C   -0.026374
     8  C    0.212829
     9  N    0.031576
    10  C   -0.005221
    11  C   -0.005565
    12  C    0.046877
    13  C   -0.143435
    14  C    0.164897
    15  C    0.051346
    16  C   -0.146080
    17  C    0.177732
    18  C   -0.233880
    19  C    0.250556
    20  S    0.074667
    21  C   -0.037011
    22  C    0.220683
    23  N    0.039905
    24  C   -0.003535
    25  C    0.001257
    26  C    0.040159
    27  C   -0.135535
    28  C    0.149274
    29  C    0.056396
 Electronic spatial extent (au):  <R**2>=          33471.6665
 Charge=              1.0000 electrons
 Dipole moment (field-independent basis, Debye):
    X=             -0.7288    Y=              0.6487    Z=              0.6285  Tot=              1.1606
 Quadrupole moment (field-independent basis, Debye-Ang):
   XX=             37.5647   YY=           -146.1105   ZZ=           -192.6562
   XY=             26.8534   XZ=              4.9262   YZ=              5.1391
 Traceless Quadrupole moment (field-independent basis, Debye-Ang):
   XX=            137.9654   YY=            -45.7099   ZZ=            -92.2555
   XY=             26.8534   XZ=              4.9262   YZ=              5.1391
 Octapole moment (field-independent basis, Debye-Ang**2):
  XXX=            -80.1976  YYY=              8.9780  ZZZ=              4.6491  XYY=            -42.9569
  XXY=             20.7874  XXZ=             -8.4215  XZZ=              5.7151  YZZ=             -0.4051
  YYZ=              4.3000  XYZ=             23.7462
 Hexadecapole moment (field-independent basis, Debye-Ang**3):
 XXXX=         -26439.0512 YYYY=          -2460.3091 ZZZZ=           -382.4007 XXXY=            762.9798
 XXXZ=             -1.2627 YYYX=            114.6508 YYYZ=             37.7993 ZZZX=              1.5309
 ZZZY=              6.3614 XXYY=          -6096.7444 XXZZ=          -7770.3398 YYZZ=           -546.8504
 XXYZ=            253.3892 YYXZ=             36.3084 ZZXY=             68.2608
 N-N= 2.585816242236D+03 E-N=-9.540100420066D+03  KE= 1.865851891185D+03
 Unable to Open any file for archive entry.
 1\1\GINC-CN03\SP\RwB97XD TD-FC\def2TZVP\C25H25N2S2(1+)\2100011873\06-N
 ov-2023\0\\# td=(nstates=150) wB97XD/def2TZVP scrf(smd, solvent=ethano
 l)\\A-4\\1,1\C,0,-3.663712,-1.051948,-0.111557\C,0,-2.389638,-0.479979
 ,-0.083458\C,0,-1.194967,-1.195004,-0.064041\C,0,0.058349,-0.578322,-0
 .035613\C,0,-4.855344,-0.323764,-0.124892\S,0,-4.926662,1.436711,-0.06
 0618\C,0,-6.688233,1.402029,-0.083292\C,0,-7.154955,0.079357,-0.139452
 \N,0,-6.111858,-0.857268,-0.18359\C,0,-7.565153,2.482703,-0.048916\C,0
 ,-8.934956,2.22022,-0.065794\C,0,-9.407072,0.90276,-0.113224\C,0,-8.52
 9361,-0.179533,-0.14882\C,0,-6.366284,-2.306872,-0.248314\C,0,-6.46713
 7,-2.955883,1.133259\C,0,1.282162,-1.246091,-0.016052\C,0,2.511127,-0.
 582889,0.011938\C,0,3.741215,-1.244345,-0.008435\C,0,5.052439,-0.74902
 ,0.008808\S,0,6.36259,-1.866987,-0.365292\C,0,7.562983,-0.600806,-0.16
 552\C,0,6.941017,0.612357,0.169846\N,0,5.544832,0.495298,0.283261\C,0,
 8.946272,-0.695535,-0.30211\C,0,9.708364,0.454142,-0.100703\C,0,9.0929
 82,1.668657,0.22877\C,0,7.709445,1.764545,0.3665\C,0,4.732809,1.623027
 ,0.770139\C,0,4.282282,2.569892,-0.344236\H,0,-3.731831,-2.134826,-0.1
 13428\H,0,-2.310249,0.607987,-0.076294\H,0,-1.237617,-2.283434,-0.0726
 11\H,0,0.079156,0.512977,-0.027655\H,0,-7.192939,3.501353,-0.008437\H,
 0,-9.638205,3.046285,-0.038434\H,0,-10.476042,0.714855,-0.119701\H,0,-
 8.914544,-1.192671,-0.174894\H,0,-7.289207,-2.442036,-0.816617\H,0,-5.
 570728,-2.757498,-0.845647\H,0,-6.666359,-4.026758,1.023381\H,0,-5.536
 643,-2.835556,1.696522\H,0,-7.280055,-2.514652,1.717995\H,0,1.279871,-
 2.33528,-0.024232\H,0,2.47239,0.50228,0.013643\H,0,3.691082,-2.326769,
 -0.105404\H,0,9.416627,-1.639291,-0.55871\H,0,10.787594,0.40544,-0.203
 502\H,0,9.700309,2.555856,0.37729\H,0,7.251286,2.716142,0.611187\H,0,3
 .887111,1.202637,1.316886\H,0,5.342782,2.154926,1.505154\H,0,3.668719,
 2.054906,-1.089954\H,0,3.6925,3.387191,0.083941\H,0,5.141488,3.005946,
 -0.862588\\Version=ES64L-G16RevC.02\State=1-A\HF=-1873.4939848\RMSD=8.
 376e-09\PG=C01 [X(C25H25N2S2)]\\@
 The archive entry for this job was punched.


 I CLAIM NOT TO HAVE CONTROLLED EVENTS,
 BUT CONFESS PLAINLY THAT EVENTS HAVE CONTROLLED ME.

                                         A. LINCOLN
 Job cpu time:       4 days  9 hours 23 minutes 40.1 seconds.
 Elapsed time:       0 days  4 hours  5 minutes  7.1 seconds.
 File lengths (MBytes):  RWF=  43424 Int=      0 D2E=      0 Chk=   4592 Scr=     32
 Normal termination of Gaussian 16 at Mon Nov  6 04:40:42 2023.
