 Entering Gaussian System, Link 0=g16
 Initial command:
 /nfs-share/home/2100011873/Gaussian16_AVX2/g16/l1.exe "/nfs-share/home/2100011873/GaussTmp/Gau-243925.inp" -scrdir="/nfs-share/home/2100011873/GaussTmp/"
 Entering Link 1 = /nfs-share/home/2100011873/Gaussian16_AVX2/g16/l1.exe PID=    243926.
  
 Copyright (c) 1988-2021, Gaussian, Inc.  All Rights Reserved.
  
 This is part of the Gaussian(R) 16 program.  It is based on
 the Gaussian(R) 09 system (copyright 2009, Gaussian, Inc.),
 the Gaussian(R) 03 system (copyright 2003, Gaussian, Inc.),
 the Gaussian(R) 98 system (copyright 1998, Gaussian, Inc.),
 the Gaussian(R) 94 system (copyright 1995, Gaussian, Inc.),
 the Gaussian 92(TM) system (copyright 1992, Gaussian, Inc.),
 the Gaussian 90(TM) system (copyright 1990, Gaussian, Inc.),
 the Gaussian 88(TM) system (copyright 1988, Gaussian, Inc.),
 the Gaussian 86(TM) system (copyright 1986, Carnegie Mellon
 University), and the Gaussian 82(TM) system (copyright 1983,
 Carnegie Mellon University). Gaussian is a federally registered
 trademark of Gaussian, Inc.
  
 This software contains proprietary and confidential information,
 including trade secrets, belonging to Gaussian, Inc.
  
 This software is provided under written license and may be
 used, copied, transmitted, or stored only in accord with that
 written license.
  
 The following legend is applicable only to US Government
 contracts under FAR:
  
                    RESTRICTED RIGHTS LEGEND
  
 Use, reproduction and disclosure by the US Government is
 subject to restrictions as set forth in subparagraphs (a)
 and (c) of the Commercial Computer Software - Restricted
 Rights clause in FAR 52.227-19.
  
 Gaussian, Inc.
 340 Quinnipiac St., Bldg. 40, Wallingford CT 06492
  
  
 ---------------------------------------------------------------
 Warning -- This program may not be used in any manner that
 competes with the business of Gaussian, Inc. or will provide
 assistance to any competitor of Gaussian, Inc.  The licensee
 of this program is prohibited from giving any competitor of
 Gaussian, Inc. access to this program.  By using this program,
 the user acknowledges that Gaussian, Inc. is engaged in the
 business of creating and licensing software in the field of
 computational chemistry and represents and warrants to the
 licensee that it is not a competitor of Gaussian, Inc. and that
 it will not use this program in any manner prohibited above.
 ---------------------------------------------------------------
  

 Cite this work as:
 Gaussian 16, Revision C.02,
 M. J. Frisch, G. W. Trucks, H. B. Schlegel, G. E. Scuseria, 
 M. A. Robb, J. R. Cheeseman, G. Scalmani, V. Barone, 
 G. A. Petersson, H. Nakatsuji, X. Li, M. Caricato, A. V. Marenich, 
 J. Bloino, B. G. Janesko, R. Gomperts, B. Mennucci, H. P. Hratchian, 
 J. V. Ortiz, A. F. Izmaylov, J. L. Sonnenberg, D. Williams-Young, 
 F. Ding, F. Lipparini, F. Egidi, J. Goings, B. Peng, A. Petrone, 
 T. Henderson, D. Ranasinghe, V. G. Zakrzewski, J. Gao, N. Rega, 
 G. Zheng, W. Liang, M. Hada, M. Ehara, K. Toyota, R. Fukuda, 
 J. Hasegawa, M. Ishida, T. Nakajima, Y. Honda, O. Kitao, H. Nakai, 
 T. Vreven, K. Throssell, J. A. Montgomery, Jr., J. E. Peralta, 
 F. Ogliaro, M. J. Bearpark, J. J. Heyd, E. N. Brothers, K. N. Kudin, 
 V. N. Staroverov, T. A. Keith, R. Kobayashi, J. Normand, 
 K. Raghavachari, A. P. Rendell, J. C. Burant, S. S. Iyengar, 
 J. Tomasi, M. Cossi, J. M. Millam, M. Klene, C. Adamo, R. Cammi, 
 J. W. Ochterski, R. L. Martin, K. Morokuma, O. Farkas, 
 J. B. Foresman, and D. J. Fox, Gaussian, Inc., Wallingford CT, 2019.
 
 ******************************************
 Gaussian 16:  ES64L-G16RevC.02  7-Dec-2021
                 3-Nov-2023 
 ******************************************
 %nprocshared=32
 Will use up to   32 processors via shared memory.
 %mem=128GB
 -------------------------------------------------------------
 # td=(nstates=150) wB97XD/def2TZVP scrf(smd, solvent=ethanol)
 -------------------------------------------------------------
 1/38=1,172=1/1;
 2/12=2,17=6,18=5,40=1/2;
 3/5=44,7=101,11=9,25=1,30=1,70=32201,72=4,74=-58/1,2,3,8;
 4//1;
 5/5=2,38=5,53=4/2;
 8/6=1,10=1,108=150/1;
 9/41=150,42=1,70=2/14;
 6/7=2,8=2,9=2,10=2/1;
 99/5=1,9=1/99;
 ---
 A-1
 ---
 Symbolic Z-matrix:
 Charge =  1 Multiplicity = 1
 C                    -1.25921   0.2167   -0.03937 
 C                     0.        0.82894  -0.00012 
 C                     1.25921   0.21668   0.03925 
 N                     2.43346   0.90485   0.146 
 S                    -1.55756  -1.51215   0.05388 
 C                    -3.29767  -1.25882  -0.02728 
 C                    -3.5899    0.10887  -0.1183 
 N                    -2.43347   0.90486  -0.14611 
 S                     1.55755  -1.51217  -0.05392 
 C                     3.29766  -1.25885   0.0273 
 C                     3.5899    0.10884   0.11825 
 C                    -4.30157  -2.22442  -0.00362 
 C                    -5.62465  -1.79213  -0.06698 
 C                    -5.92564  -0.42569  -0.14901 
 C                    -4.92039   0.53827  -0.17427 
 C                     4.30156  -2.22445   0.00372 
 C                     5.62464  -1.79215   0.06707 
 C                     5.92564  -0.42571   0.14902 
 C                     4.92038   0.53826   0.17421 
 C                    -2.51035   2.37353  -0.25723 
 C                    -2.56643   3.07379   1.10152 
 C                     2.51034   2.3735    0.2573 
 C                     2.56651   3.07393  -1.10136 
 H                     0.00001   1.90904  -0.00021 
 H                    -4.06058  -3.28031   0.06397 
 H                    -6.42724  -2.52213  -0.04909 
 H                    -6.96206  -0.10651  -0.19134 
 H                    -5.17675   1.59021  -0.22813 
 H                     4.06057  -3.28035  -0.06382 
 H                     6.42723  -2.52216   0.04923 
 H                     6.96205  -0.10653   0.19134 
 H                     5.17673   1.5902    0.22802 
 H                    -1.65749   2.70849  -0.85213 
 H                    -3.39812   2.59717  -0.85222 
 H                    -3.44119   2.75206   1.67457 
 H                    -1.67384   2.86336   1.69908 
 H                    -2.63423   4.15636   0.9543 
 H                     1.65744   2.70838   0.85218 
 H                     3.39807   2.59706   0.85237 
 H                     3.44133   2.75234  -1.67437 
 H                     1.67399   2.86351  -1.69903 
 H                     2.63421   4.15649  -0.95399 
 
                          Input orientation:                          
 ---------------------------------------------------------------------
 Center     Atomic      Atomic             Coordinates (Angstroms)
 Number     Number       Type             X           Y           Z
 ---------------------------------------------------------------------
      1          6           0       -1.259214    0.216698   -0.039367
      2          6           0        0.000003    0.828935   -0.000122
      3          6           0        1.259209    0.216684    0.039249
      4          7           0        2.433464    0.904848    0.145998
      5         16           0       -1.557561   -1.512152    0.053882
      6          6           0       -3.297665   -1.258824   -0.027283
      7          6           0       -3.589904    0.108866   -0.118299
      8          7           0       -2.433474    0.904863   -0.146106
      9         16           0        1.557549   -1.512171   -0.053923
     10          6           0        3.297657   -1.258850    0.027304
     11          6           0        3.589900    0.108842    0.118251
     12          6           0       -4.301571   -2.224422   -0.003624
     13          6           0       -5.624645   -1.792125   -0.066975
     14          6           0       -5.925643   -0.425687   -0.149009
     15          6           0       -4.920394    0.538274   -0.174272
     16          6           0        4.301563   -2.224450    0.003718
     17          6           0        5.624635   -1.792149    0.067066
     18          6           0        5.925635   -0.425707    0.149021
     19          6           0        4.920384    0.538258    0.174213
     20          6           0       -2.510348    2.373529   -0.257226
     21          6           0       -2.566433    3.073786    1.101522
     22          6           0        2.510339    2.373497    0.257299
     23          6           0        2.566508    3.073929   -1.101357
     24          1           0        0.000014    1.909040   -0.000214
     25          1           0       -4.060576   -3.280313    0.063971
     26          1           0       -6.427238   -2.522132   -0.049094
     27          1           0       -6.962056   -0.106514   -0.191342
     28          1           0       -5.176748    1.590213   -0.228130
     29          1           0        4.060566   -3.280345   -0.063815
     30          1           0        6.427230   -2.522156    0.049231
     31          1           0        6.962048   -0.106532    0.191339
     32          1           0        5.176733    1.590201    0.228019
     33          1           0       -1.657488    2.708489   -0.852128
     34          1           0       -3.398115    2.597174   -0.852215
     35          1           0       -3.441185    2.752064    1.674572
     36          1           0       -1.673838    2.863356    1.699082
     37          1           0       -2.634230    4.156364    0.954302
     38          1           0        1.657436    2.708379    0.852183
     39          1           0        3.398074    2.597059    0.852370
     40          1           0        3.441334    2.752344   -1.674368
     41          1           0        1.673988    2.863510   -1.699033
     42          1           0        2.634214    4.156493   -0.953990
 ---------------------------------------------------------------------
                    Distance matrix (angstroms):
                    1          2          3          4          5
     1  C    0.000000
     2  C    1.400715   0.000000
     3  C    2.519650   1.400715   0.000000
     4  N    3.760822   2.439026   1.365225   0.000000
     5  S    1.756880   2.812403   3.305039   4.666761   0.000000
     6  C    2.516465   3.903087   4.790266   6.128405   1.760320
     7  C    2.334518   3.663318   4.852870   6.081480   2.605334
     8  N    1.365229   2.439034   3.760832   4.875696   2.578600
     9  S    3.305050   2.812405   1.756880   2.578600   3.116975
    10  C    4.790278   3.903091   2.516468   2.332918   4.861894
    11  C    4.852874   3.663319   2.334522   1.404186   5.397047
    12  C    3.900805   5.275087   6.073147   7.428015   2.835529
    13  C    4.805530   6.205730   7.171753   8.500126   4.078500
    14  C    4.711713   6.058839   7.215967   8.469476   4.505742
    15  C    3.677751   4.932050   6.191648   7.369951   3.945244
    16  C    6.073162   5.275092   3.900810   3.647265   5.902476
    17  C    7.171762   6.205730   4.805531   4.178947   7.187664
    18  C    7.215970   6.058835   4.711714   3.737064   7.562251
    19  C    6.191643   4.932042   3.677748   2.513952   6.795766
    20  C    2.502942   2.958671   4.353095   5.173093   4.012868
    21  C    3.342664   3.583234   4.891523   5.533199   4.811050
    22  C    4.353082   2.958669   2.502941   1.474865   5.629161
    23  C    4.891599   3.583248   3.342733   2.505695   6.274923
    24  H    2.109789   1.080105   2.109786   2.636562   3.759458
    25  H    4.481896   5.777398   6.366295   7.726245   3.064568
    26  H    5.848911   7.248550   8.160293   9.502331   4.974376
    27  H    5.714015   7.027225   8.230846   9.455816   5.589680
    28  H    4.155628   5.237393   6.586320   7.650165   4.775219
    29  H    6.366315   5.777405   4.481901   4.495256   5.890985
    30  H    8.160306   7.248551   5.848913   5.263448   8.048417
    31  H    8.230848   7.027220   5.714015   4.640368   8.635879
    32  H    6.586305   5.237376   4.155620   2.828774   7.416578
    33  H    2.651080   2.646869   3.938371   4.580968   4.317945
    34  H    3.301861   3.924275   5.305856   6.153675   4.592952
    35  H    3.758546   4.283083   5.585350   6.345096   4.935404
    36  H    3.193574   3.134949   4.285170   4.808092   4.676032
    37  H    4.289407   4.349930   5.614024   6.075132   5.839696
    38  H    3.938297   2.646851   2.651036   2.086538   5.365293
    39  H    5.305812   3.924270   3.301832   2.071958   6.487027
    40  H    5.585506   4.283148   3.758687   2.782584   6.794242
    41  H    4.285298   3.134967   3.193643   2.795943   5.715071
    42  H    5.614027   4.349894   4.289436   3.438527   7.121820
                    6          7          8          9         10
     6  C    0.000000
     7  C    1.401522   0.000000
     8  N    2.332914   1.404178   0.000000
     9  S    4.861892   5.397053   4.666778   0.000000
    10  C    6.595548   7.023556   6.128425   1.760325   0.000000
    11  C    7.023549   7.183700   6.081494   2.605336   1.401520
    12  C    1.393114   2.442100   3.647261   5.902467   7.660389
    13  C    2.387639   2.785062   4.178945   7.187660   8.938722
    14  C    2.759566   2.396324   3.737060   7.562252   9.262533
    15  C    2.425782   1.399188   2.513951   6.795775   8.414669
    16  C    7.660396   8.230097   7.428039   2.835538   1.393114
    17  C    8.938723   9.410417   8.500143   4.078506   2.387638
    18  C    9.262528   9.534291   8.469488   4.505748   2.759567
    19  C    8.414656   8.526133   7.369955   3.945246   2.425783
    20  C    3.723806   2.512656   1.474868   5.629190   6.856242
    21  C    4.536564   3.365443   2.505690   6.274813   7.369751
    22  C    6.856213   6.517867   5.173095   4.012865   3.723803
    23  C    7.369865   6.903580   5.533279   4.811178   4.536676
    24  H    4.572831   4.017721   2.636573   3.759453   4.572826
    25  H    2.162586   3.426556   4.495252   5.890972   7.630940
    26  H    3.375004   3.870065   5.263445   8.048408   9.806901
    27  H    3.844801   3.379813   4.640365   8.635880  10.326538
    28  H    3.418816   2.173597   2.828778   7.416596   8.944157
    29  H    7.630953   8.367760   7.726273   3.064577   2.162585
    30  H    9.806908  10.358249   9.502352   4.974385   3.375004
    31  H   10.326533  10.558691   9.455825   5.589685   3.844802
    32  H    8.944135   8.897652   7.650157   4.775217   3.418816
    33  H    4.371513   3.321261   2.086549   5.365404   6.408326
    34  H    3.944531   2.601364   2.071965   6.487110   7.776621
    35  H    4.359373   3.197343   2.782535   6.794022   8.013296
    36  H    4.754947   3.815940   2.795972   5.714904   6.671071
    37  H    5.543277   4.294884   3.438526   7.121785   8.085243
    38  H    6.408212   5.935813   4.580916   4.317875   4.371459
    39  H    7.776538   7.480985   6.153652   4.592893   3.944471
    40  H    8.013518   7.671221   6.345245   4.935643   4.359588
    41  H    6.671261   6.147792   4.808235   4.676166   4.755039
    42  H    8.085273   7.471366   6.075133   5.839784   5.543378
                   11         12         13         14         15
    11  C    0.000000
    12  C    8.230084   0.000000
    13  C    9.410410   1.393348   0.000000
    14  C    9.534291   2.427796   1.401600   0.000000
    15  C    8.526141   2.836292   2.436851   1.392977   0.000000
    16  C    2.442096   8.603137   9.935870  10.385308   9.628542
    17  C    2.785055   9.935865  11.250079  11.632834  10.802164
    18  C    2.396320  10.385298  11.632829  11.855025  10.893582
    19  C    1.399185   9.628524  10.802152  10.893574   9.846946
    20  C    6.517884   4.941047   5.204586   4.417189   3.030407
    21  C    6.903488   5.683578   5.864737   5.009434   3.687493
    22  C    2.512658   8.222594   9.145246   8.897545   7.666165
    23  C    3.365489   8.743458   9.583497   9.234225   7.958815
    24  H    4.017714   5.965665   6.733489   6.370754   5.110745
    25  H    8.367742   1.085151   2.162906   3.416537   3.921435
    26  H   10.358237   2.146895   1.085074   2.157930   3.413551
    27  H   10.558693   3.405724   2.155324   1.085272   2.141127
    28  H    8.897671   3.920176   3.415669   2.151966   1.084064
    29  H    3.426553   8.428756   9.798884  10.386563   9.759697
    30  H    3.870059  10.733062  12.074524  12.531079  11.755201
    31  H    3.379809  11.462660  12.701685  12.896134  11.905540
    32  H    2.173594  10.219748  11.322408  11.290204  10.159742
    33  H    5.935898   5.660808   6.050647   5.341777   3.976918
    34  H    7.481040   4.978366   4.983973   4.002572   2.648775
    35  H    7.671044   5.321844   5.333867   4.426746   3.241473
    36  H    6.147627   5.974083   6.356205   5.684284   4.410849
    37  H    7.471359   6.664239   6.735734   5.748555   4.426150
    38  H    3.321245   7.782975   8.609767   8.266066   7.002201
    39  H    2.601337   9.124908  10.075693   9.852485   8.630730
    40  H    3.197445   9.354794  10.267808  10.008339   8.779003
    41  H    3.815945   8.029245   8.809574   8.424713   7.156640
    42  H    4.294941   9.472296  10.216732   9.742460   8.412584
                   16         17         18         19         20
    16  C    0.000000
    17  C    1.393347   0.000000
    18  C    2.427797   1.401600   0.000000
    19  C    2.836294   2.436852   1.392980   0.000000
    20  C    8.222629   9.145271   8.897560   7.666168   0.000000
    21  C    8.743332   9.583372   9.234118   7.958721   1.529608
    22  C    4.941043   5.204578   4.417184   3.030400   5.046983
    23  C    5.683698   5.864816   5.009454   3.687470   5.193995
    24  H    5.965658   6.733475   6.370738   5.110725   2.565877
    25  H    8.428751   9.798875  10.386550   9.759676   5.871312
    26  H   10.733060  12.074519  12.531070  11.755185   6.273184
    27  H   11.462670  12.701690  12.896135  11.905534   5.096338
    28  H   10.219774  11.322429  11.290221  10.159752   2.779230
    29  H    1.085152   2.162908   3.416539   3.921438   8.670675
    30  H    2.146896   1.085075   2.157928   3.413552  10.195192
    31  H    3.405724   2.155324   1.085272   2.141130   9.801949
    32  H    3.920178   3.415672   2.151971   1.084064   7.742111
    33  H    7.783100   8.609877   8.266150   7.002262   1.092464
    34  H    9.125005  10.075775   9.852543   8.630766   1.091860
    35  H    9.354549  10.267572  10.008139   8.778830   2.177519
    36  H    8.029038   8.809365   8.424525   7.156470   2.183305
    37  H    9.472255  10.216694   9.742440   8.412575   2.159085
    38  H    5.660751   6.050606   5.341765   3.976921   4.325891
    39  H    4.978298   4.983916   4.002547   2.648771   6.015864
    40  H    5.322072   5.334024   4.426794   3.241453   6.129789
    41  H    5.974182   6.356247   5.684255   4.410775   4.452814
    42  H    6.664360   6.735838   5.748621   4.426177   5.489167
                   21         22         23         24         25
    21  C    0.000000
    22  C    5.193913   0.000000
    23  C    5.585674   1.529610   0.000000
    24  H    3.026071   2.565885   3.025950   0.000000
    25  H    6.609353   8.670632   9.254870   6.589529   0.000000
    26  H    6.895218  10.195163  10.644746   7.806872   2.487712
    27  H    5.577392   9.801939  10.086470   7.250476   4.307757
    28  H    3.283703   7.742124   7.932336   5.191576   5.005316
    29  H    9.254734   5.871307   6.609501   6.589525   8.122147
    30  H   10.644616   6.273177   6.895302   7.806859  10.515184
    31  H   10.086367   5.096333   5.577380   7.250458  11.471153
    32  H    7.932254   2.779221   3.283590   5.191548  10.443979
    33  H    2.185491   4.325948   4.247094   2.027853   6.517654
    34  H    2.176222   6.015886   5.988831   3.570254   5.985241
    35  H    1.094113   6.129650   6.625840   3.918858   6.274333
    36  H    1.094570   4.452644   5.085994   2.569067   6.790786
    37  H    1.094644   5.489173   5.696058   3.591769   7.624390
    38  H    4.246971   1.092463   2.185488   2.027948   8.317534
    39  H    5.988713   1.091862   2.176225   3.570306   9.528722
    40  H    6.625870   2.177525   1.094111   3.918754   9.782302
    41  H    5.086108   2.183307   1.094571   2.568888   8.587198
    42  H    5.695973   2.159083   1.094644   3.591621  10.057959
                   26         27         28         29         30
    26  H    0.000000
    27  H    2.478200   0.000000
    28  H    4.301995   2.463242   0.000000
    29  H   10.515186  11.471167  10.444008   0.000000
    30  H   12.854844  13.607578  12.314252   2.487716   0.000000
    31  H   13.607568  13.929362  12.263982   4.307759   2.478198
    32  H   12.314228  12.263968  10.363525   5.005319   4.301998
    33  H    7.124239   6.041467   3.745011   8.317675   9.671337
    34  H    6.002323   4.521986   2.137051   9.528837  11.115644
    35  H    6.301165   4.904043   2.825306   9.782035  11.306845
    36  H    7.392862   6.352880   4.195881   8.586982   9.866765
    37  H    7.745710   6.181805   3.801010  10.057907  11.293000
    38  H    9.671220   9.127333   7.008812   6.517584   7.124196
    39  H   11.115553  10.757831   8.701080   5.985162   6.002265
    40  H   11.307092  10.890499   8.815526   6.274605   6.301327
    41  H    9.866980   9.256102   7.121617   6.790924   7.392911
    42  H   11.293041  10.528213   8.253714   7.624530   7.745823
                   31         32         33         34         35
    31  H    0.000000
    32  H    2.463249   0.000000
    33  H    9.127407   7.008842   0.000000
    34  H   10.757881   8.701087   1.744183   0.000000
    35  H   10.890308   8.815382   3.093168   2.531896   0.000000
    36  H    9.255920   7.121466   2.555958   3.090809   1.771017
    37  H   10.528198   8.253716   2.512679   2.505613   1.772575
    38  H    6.041469   3.745044   3.727385   5.336285   5.164704
    39  H    4.521977   2.137102   5.336332   7.006696   6.890247
    40  H    4.904025   2.825113   5.164880   6.890434   7.654049
    41  H    6.352813   4.195720   3.440932   5.149200   6.128509
    42  H    6.181853   3.800974   4.530541   6.231439   6.766996
                   36         37         38         39         40
    36  H    0.000000
    37  H    1.774520   0.000000
    38  H    3.440733   4.530506   0.000000
    39  H    5.148993   6.231413   1.744194   0.000000
    40  H    6.128415   6.767101   3.093167   2.531875   0.000000
    41  H    4.770233   5.222298   2.555982   3.090813   1.771010
    42  H    5.222098   5.603399   2.512646   2.505644   1.772575
                   41         42
    41  H    0.000000
    42  H    1.774522   0.000000
 Stoichiometry    C19H19N2S2(1+)
 Framework group  C1[X(C19H19N2S2)]
 Deg. of freedom   120
 Full point group                 C1      NOp   1
 Largest Abelian subgroup         C1      NOp   1
 Largest concise Abelian subgroup C1      NOp   1
                         Standard orientation:                         
 ---------------------------------------------------------------------
 Center     Atomic      Atomic             Coordinates (Angstroms)
 Number     Number       Type             X           Y           Z
 ---------------------------------------------------------------------
      1          6           0       -1.259214    0.216698   -0.039367
      2          6           0        0.000003    0.828935   -0.000122
      3          6           0        1.259209    0.216684    0.039249
      4          7           0        2.433464    0.904848    0.145998
      5         16           0       -1.557561   -1.512152    0.053882
      6          6           0       -3.297665   -1.258824   -0.027283
      7          6           0       -3.589904    0.108866   -0.118299
      8          7           0       -2.433474    0.904863   -0.146106
      9         16           0        1.557549   -1.512171   -0.053923
     10          6           0        3.297657   -1.258850    0.027304
     11          6           0        3.589900    0.108842    0.118251
     12          6           0       -4.301571   -2.224422   -0.003624
     13          6           0       -5.624645   -1.792125   -0.066975
     14          6           0       -5.925643   -0.425687   -0.149009
     15          6           0       -4.920394    0.538274   -0.174272
     16          6           0        4.301563   -2.224450    0.003718
     17          6           0        5.624635   -1.792149    0.067066
     18          6           0        5.925635   -0.425707    0.149021
     19          6           0        4.920384    0.538258    0.174213
     20          6           0       -2.510348    2.373529   -0.257226
     21          6           0       -2.566433    3.073786    1.101522
     22          6           0        2.510339    2.373497    0.257299
     23          6           0        2.566508    3.073929   -1.101357
     24          1           0        0.000014    1.909040   -0.000214
     25          1           0       -4.060576   -3.280313    0.063971
     26          1           0       -6.427238   -2.522132   -0.049094
     27          1           0       -6.962056   -0.106514   -0.191342
     28          1           0       -5.176748    1.590213   -0.228130
     29          1           0        4.060566   -3.280345   -0.063815
     30          1           0        6.427230   -2.522156    0.049231
     31          1           0        6.962048   -0.106532    0.191339
     32          1           0        5.176733    1.590201    0.228019
     33          1           0       -1.657488    2.708489   -0.852128
     34          1           0       -3.398115    2.597174   -0.852215
     35          1           0       -3.441185    2.752064    1.674572
     36          1           0       -1.673838    2.863356    1.699082
     37          1           0       -2.634230    4.156364    0.954302
     38          1           0        1.657436    2.708379    0.852183
     39          1           0        3.398074    2.597059    0.852370
     40          1           0        3.441334    2.752344   -1.674368
     41          1           0        1.673988    2.863510   -1.699033
     42          1           0        2.634214    4.156493   -0.953990
 ---------------------------------------------------------------------
 Rotational constants (GHZ):           0.5197631           0.1187459           0.0985340
 Standard basis: def2TZVP (5D, 7F)
 There are   954 symmetry adapted cartesian basis functions of A   symmetry.
 There are   839 symmetry adapted basis functions of A   symmetry.
   839 basis functions,  1361 primitive gaussians,   954 cartesian basis functions
    89 alpha electrons       89 beta electrons
       nuclear repulsion energy      2127.8579715027 Hartrees.
 NAtoms=   42 NActive=   42 NUniq=   42 SFac= 1.00D+00 NAtFMM=   60 NAOKFM=F Big=F
 Integral buffers will be    131072 words long.
 Raffenetti 1 integral format.
 Two-electron integral symmetry is turned on.
 Nuclear repulsion after empirical dispersion term =     2127.8261545993 Hartrees.
 ------------------------------------------------------------------------------
 Polarizable Continuum Model (PCM)
 =================================
 Model                : PCM.
 Atomic radii         : SMD-Coulomb.
 Polarization charges : Total charges.
 Charge compensation  : None.
 Solution method      : On-the-fly selection.
 Cavity type          : VdW (van der Waals Surface) (Alpha=1.000).
 Cavity algorithm     : GePol (No added spheres)
                        Default sphere list used, NSphG=   42.
                        Lebedev-Laikov grids with approx.  5.0 points / Ang**2.
                        Smoothing algorithm: York/Karplus (Gamma=1.0000).
                        Polarization charges: spherical gaussians, with
                                              point-specific exponents (IZeta= 3).
                        Self-potential: point-specific (ISelfS= 7).
                        Self-field    : sphere-specific E.n sum rule (ISelfD= 2).
 Solvent              : Ethanol, Eps=  24.852000 Eps(inf)=   1.852593
 ------------------------------------------------------------------------------
 ------------------------------------------------------------------------------
 Atomic radii for non-electrostatic terms: SMD-CDS.
 ------------------------------------------------------------------------------
 Nuclear repulsion after PCM non-electrostatic terms =     2127.8208028914 Hartrees.
 One-electron integrals computed using PRISM.
   1 Symmetry operations used in ECPInt.
 ECPInt:  NShTT=   55611 NPrTT=  173757 LenC2=   45262 LenP2D=   98157.
 LDataN:  DoStor=T MaxTD1= 6 Len=  172
 NBasis=   839 RedAO= T EigKep=  6.97D-06  NBF=   839
 NBsUse=   839 1.00D-06 EigRej= -1.00D+00 NBFU=   839
 ExpMin= 9.52D-02 ExpMax= 6.07D+04 ExpMxC= 2.07D+03 IAcc=3 IRadAn=         5 AccDes= 0.00D+00
 Harris functional with IExCor= 4639 and IRadAn=       5 diagonalized for initial guess.
 HarFok:  IExCor= 4639 AccDes= 0.00D+00 IRadAn=         5 IDoV= 1 UseB2=F ITyADJ=14
 ICtDFT=  3500011 ScaDFX=  1.000000  1.000000  1.000000  1.000000
 FoFCou: FMM=F IPFlag=           0 FMFlag=      100000 FMFlg1=           0
         NFxFlg=           0 DoJE=T BraDBF=F KetDBF=T FulRan=T
         wScrn=  0.000000 ICntrl=       500 IOpCl=  0 I1Cent=   200000004 NGrid=           0
         NMat0=    1 NMatS0=      1 NMatT0=    0 NMatD0=    1 NMtDS0=    0 NMtDT0=    0
 Petite list used in FoFCou.
 Requested convergence on RMS density matrix=1.00D-08 within 128 cycles.
 Requested convergence on MAX density matrix=1.00D-06.
 Requested convergence on             energy=1.00D-06.
 No special actions if energy rises.
 Inv3:  Mode=1 IEnd=    30470907.
 Iteration    1 A*A^-1 deviation from unit magnitude is 3.33D-15 for    552.
 Iteration    1 A*A^-1 deviation from orthogonality  is 1.80D-15 for   1166    503.
 Iteration    1 A^-1*A deviation from unit magnitude is 3.55D-15 for   3042.
 Iteration    1 A^-1*A deviation from orthogonality  is 5.30D-09 for   2621   2551.
 Iteration    2 A*A^-1 deviation from unit magnitude is 2.44D-15 for    154.
 Iteration    2 A*A^-1 deviation from orthogonality  is 3.72D-15 for   1512    703.
 Iteration    2 A^-1*A deviation from unit magnitude is 1.67D-15 for   1071.
 Iteration    2 A^-1*A deviation from orthogonality  is 1.26D-15 for    936      2.
 Error on total polarization charges =  0.05621
 SCF Done:  E(RwB97XD) =  -1641.28403714     A.U. after   14 cycles
            NFock= 14  Conv=0.51D-08     -V/T= 2.0039
 SMD-CDS (non-electrostatic) energy       (kcal/mol) =      -3.36
 (included in total energy above)
 DoSCS=F DFT=T ScalE2(SS,OS)=  1.000000  1.000000
 ExpMin= 9.52D-02 ExpMax= 6.07D+04 ExpMxC= 2.07D+03 IAcc=3 IRadAn=         5 AccDes= 0.00D+00
 HarFok:  IExCor=  205 AccDes= 0.00D+00 IRadAn=         5 IDoV=-2 UseB2=F ITyADJ=14
 ICtDFT= 12500011 ScaDFX=  1.000000  1.000000  1.000000  1.000000
 GSVD:  LWork=       -1209 too small for GESVD, short by        5270 words or        5270 for optimal perf.
 Range of M.O.s used for correlation:    32   839
 NBasis=   839 NAE=    89 NBE=    89 NFC=    31 NFV=     0
 NROrb=    808 NOA=    58 NOB=    58 NVA=   750 NVB=   750

 **** Warning!!: The largest alpha MO coefficient is  0.48025595D+02

 NEqPCM:  Using non-equilibrium solvation (IEInf=1, Eps=  24.8520, EpsInf=   1.8526)
 Inv3:  Mode=1 IEnd=    30470907.
 Iteration    1 A*A^-1 deviation from unit magnitude is 3.77D-15 for    249.
 Iteration    1 A*A^-1 deviation from orthogonality  is 2.26D-15 for   1512    703.
 Iteration    1 A^-1*A deviation from unit magnitude is 3.55D-15 for    249.
 Iteration    1 A^-1*A deviation from orthogonality  is 2.87D-15 for   1067    948.
 Orbital symmetries:
       Occupied  (A) (A) (A) (A) (A) (A) (A) (A) (A) (A) (A) (A)
                 (A) (A) (A) (A) (A) (A) (A) (A) (A) (A) (A) (A)
                 (A) (A) (A) (A) (A) (A) (A) (A) (A) (A) (A) (A)
                 (A) (A) (A) (A) (A) (A) (A) (A) (A) (A) (A) (A)
                 (A) (A) (A) (A) (A) (A) (A) (A) (A) (A) (A) (A)
                 (A) (A) (A) (A) (A) (A) (A) (A) (A) (A) (A) (A)
                 (A) (A) (A) (A) (A) (A) (A) (A) (A) (A) (A) (A)
                 (A) (A) (A) (A) (A)
       Virtual   (A) (A) (A) (A) (A) (A) (A) (A) (A) (A) (A) (A)
                 (A) (A) (A) (A) (A) (A) (A) (A) (A) (A) (A) (A)
                 (A) (A) (A) (A) (A) (A) (A) (A) (A) (A) (A) (A)
                 (A) (A) (A) (A) (A) (A) (A) (A) (A) (A) (A) (A)
                 (A) (A) (A) (A) (A) (A) (A) (A) (A) (A) (A) (A)
                 (A) (A) (A) (A) (A) (A) (A) (A) (A) (A) (A) (A)
                 (A) (A) (A) (A) (A) (A) (A) (A) (A) (A) (A) (A)
                 (A) (A) (A) (A) (A) (A) (A) (A) (A) (A) (A) (A)
                 (A) (A) (A) (A) (A) (A) (A) (A) (A) (A) (A) (A)
                 (A) (A) (A) (A) (A) (A) (A) (A) (A) (A) (A) (A)
                 (A) (A) (A) (A) (A) (A) (A) (A) (A) (A) (A) (A)
                 (A) (A) (A) (A) (A) (A) (A) (A) (A) (A) (A) (A)
                 (A) (A) (A) (A) (A) (A) (A) (A) (A) (A) (A) (A)
                 (A) (A) (A) (A) (A) (A) (A) (A) (A) (A) (A) (A)
                 (A) (A) (A) (A) (A) (A) (A) (A) (A) (A) (A) (A)
                 (A) (A) (A) (A) (A) (A) (A) (A) (A) (A) (A) (A)
                 (A) (A) (A) (A) (A) (A) (A) (A) (A) (A) (A) (A)
                 (A) (A) (A) (A) (A) (A) (A) (A) (A) (A) (A) (A)
                 (A) (A) (A) (A) (A) (A) (A) (A) (A) (A) (A) (A)
                 (A) (A) (A) (A) (A) (A) (A) (A) (A) (A) (A) (A)
                 (A) (A) (A) (A) (A) (A) (A) (A) (A) (A) (A) (A)
                 (A) (A) (A) (A) (A) (A) (A) (A) (A) (A) (A) (A)
                 (A) (A) (A) (A) (A) (A) (A) (A) (A) (A) (A) (A)
                 (A) (A) (A) (A) (A) (A) (A) (A) (A) (A) (A) (A)
                 (A) (A) (A) (A) (A) (A) (A) (A) (A) (A) (A) (A)
                 (A) (A) (A) (A) (A) (A) (A) (A) (A) (A) (A) (A)
                 (A) (A) (A) (A) (A) (A) (A) (A) (A) (A) (A) (A)
                 (A) (A) (A) (A) (A) (A) (A) (A) (A) (A) (A) (A)
                 (A) (A) (A) (A) (A) (A) (A) (A) (A) (A) (A) (A)
                 (A) (A) (A) (A) (A) (A) (A) (A) (A) (A) (A) (A)
                 (A) (A) (A) (A) (A) (A) (A) (A) (A) (A) (A) (A)
                 (A) (A) (A) (A) (A) (A) (A) (A) (A) (A) (A) (A)
                 (A) (A) (A) (A) (A) (A) (A) (A) (A) (A) (A) (A)
                 (A) (A) (A) (A) (A) (A) (A) (A) (A) (A) (A) (A)
                 (A) (A) (A) (A) (A) (A) (A) (A) (A) (A) (A) (A)
                 (A) (A) (A) (A) (A) (A) (A) (A) (A) (A) (A) (A)
                 (A) (A) (A) (A) (A) (A) (A) (A) (A) (A) (A) (A)
                 (A) (A) (A) (A) (A) (A) (A) (A) (A) (A) (A) (A)
                 (A) (A) (A) (A) (A) (A) (A) (A) (A) (A) (A) (A)
                 (A) (A) (A) (A) (A) (A) (A) (A) (A) (A) (A) (A)
                 (A) (A) (A) (A) (A) (A) (A) (A) (A) (A) (A) (A)
                 (A) (A) (A) (A) (A) (A) (A) (A) (A) (A) (A) (A)
                 (A) (A) (A) (A) (A) (A) (A) (A) (A) (A) (A) (A)
                 (A) (A) (A) (A) (A) (A) (A) (A) (A) (A) (A) (A)
                 (A) (A) (A) (A) (A) (A) (A) (A) (A) (A) (A) (A)
                 (A) (A) (A) (A) (A) (A) (A) (A) (A) (A) (A) (A)
                 (A) (A) (A) (A) (A) (A) (A) (A) (A) (A) (A) (A)
                 (A) (A) (A) (A) (A) (A) (A) (A) (A) (A) (A) (A)
                 (A) (A) (A) (A) (A) (A) (A) (A) (A) (A) (A) (A)
                 (A) (A) (A) (A) (A) (A) (A) (A) (A) (A) (A) (A)
                 (A) (A) (A) (A) (A) (A) (A) (A) (A) (A) (A) (A)
                 (A) (A) (A) (A) (A) (A) (A) (A) (A) (A) (A) (A)
                 (A) (A) (A) (A) (A) (A) (A) (A) (A) (A) (A) (A)
                 (A) (A) (A) (A) (A) (A) (A) (A) (A) (A) (A) (A)
                 (A) (A) (A) (A) (A) (A) (A) (A) (A) (A) (A) (A)
                 (A) (A) (A) (A) (A) (A) (A) (A) (A) (A) (A) (A)
                 (A) (A) (A) (A) (A) (A) (A) (A) (A) (A) (A) (A)
                 (A) (A) (A) (A) (A) (A) (A) (A) (A) (A) (A) (A)
                 (A) (A) (A) (A) (A) (A) (A) (A) (A) (A) (A) (A)
                 (A) (A) (A) (A) (A) (A) (A) (A) (A) (A) (A) (A)
                 (A) (A) (A) (A) (A) (A) (A) (A) (A) (A) (A) (A)
                 (A) (A) (A) (A) (A) (A) (A) (A) (A) (A) (A) (A)
                 (A) (A) (A) (A) (A) (A)
   600 initial guesses have been made.
 Convergence on wavefunction:    0.001000000000000
 Iteration     1 Dimension   600 NMult     0 NNew    600
 CISAX will form   224 AO SS matrices at one time.
 New state      2 was old state      3
 New state      3 was old state      2
 New state      5 was old state      8
 New state      6 was old state      7
 New state      7 was old state     11
 New state      8 was old state      6
 New state      9 was old state      5
 New state     10 was old state     13
 New state     11 was old state     14
 New state     12 was old state      9
 New state     13 was old state     10
 New state     14 was old state     17
 New state     16 was old state     25
 New state     17 was old state     12
 New state     18 was old state     16
 New state     19 was old state     20
 New state     20 was old state     26
 New state     21 was old state     22
 New state     22 was old state     31
 New state     23 was old state     32
 New state     24 was old state     36
 New state     25 was old state     37
 New state     26 was old state     50
 New state     27 was old state     18
 New state     28 was old state     54
 New state     29 was old state     61
 New state     30 was old state     23
 New state     31 was old state     33
 New state     32 was old state     48
 New state     33 was old state     41
 New state     34 was old state     28
 New state     35 was old state     38
 New state     36 was old state     35
 New state     37 was old state     30
 New state     38 was old state     34
 New state     39 was old state     40
 New state     40 was old state     49
 New state     41 was old state     46
 New state     42 was old state     51
 New state     44 was old state     81
 New state     45 was old state     19
 New state     46 was old state     42
 New state     47 was old state     91
 New state     48 was old state     56
 New state     49 was old state     79
 New state     50 was old state     24
 New state     51 was old state     57
 New state     52 was old state     55
 New state     53 was old state     62
 New state     54 was old state     45
 New state     55 was old state     47
 New state     56 was old state     59
 New state     57 was old state     53
 New state     58 was old state     63
 New state     59 was old state     75
 New state     60 was old state    158
 New state     61 was old state    143
 New state     62 was old state     80
 New state     63 was old state     68
 New state     64 was old state    142
 New state     65 was old state     71
 New state     66 was old state    106
 New state     67 was old state     77
 New state     68 was old state     44
 New state     69 was old state     29
 New state     70 was old state     82
 New state     71 was old state     39
 New state     72 was old state     21
 New state     73 was old state     93
 New state     74 was old state     86
 New state     75 was old state     67
 New state     77 was old state     73
 New state     79 was old state    112
 New state     80 was old state     72
 New state     81 was old state     85
 New state     82 was old state     95
 New state     83 was old state     96
 New state     84 was old state     52
 New state     85 was old state     66
 New state     86 was old state    110
 New state     87 was old state     90
 New state     88 was old state    103
 New state     89 was old state    124
 New state     90 was old state    147
 New state     91 was old state    184
 New state     92 was old state     74
 New state     93 was old state    174
 New state     94 was old state    117
 New state     95 was old state    101
 New state     96 was old state     64
 New state     97 was old state    175
 New state     98 was old state     83
 New state     99 was old state    130
 New state    100 was old state     97
 New state    101 was old state     98
 New state    102 was old state     60
 New state    103 was old state     92
 New state    104 was old state     89
 New state    105 was old state    131
 New state    106 was old state    115
 New state    107 was old state    104
 New state    108 was old state     87
 New state    109 was old state    195
 New state    110 was old state     99
 New state    111 was old state    168
 New state    112 was old state    111
 New state    113 was old state    144
 New state    114 was old state    135
 New state    115 was old state    121
 New state    116 was old state    125
 New state    117 was old state    108
 New state    118 was old state    170
 New state    119 was old state    127
 New state    120 was old state    161
 New state    121 was old state    137
 New state    122 was old state    156
 New state    123 was old state    114
 New state    124 was old state     65
 New state    125 was old state    153
 New state    126 was old state    159
 New state    127 was old state    134
 New state    128 was old state    132
 New state    129 was old state    148
 New state    130 was old state     69
 New state    131 was old state    105
 New state    132 was old state    139
 New state    133 was old state     58
 New state    134 was old state    183
 New state    135 was old state    169
 New state    136 was old state    198
 New state    137 was old state    119
 New state    138 was old state    151
 New state    139 was old state    167
 New state    140 was old state    268
 New state    141 was old state    149
 New state    142 was old state    186
 New state    143 was old state    123
 New state    144 was old state    189
 New state    145 was old state    164
 New state    146 was old state    202
 New state    147 was old state    191
 New state    148 was old state    178
 New state    149 was old state    337
 New state    150 was old state    221
 Iteration     2 Dimension   900 NMult   600 NNew    300
 New state      7 was old state      8
 New state      8 was old state      7
 New state     10 was old state     12
 New state     11 was old state     10
 New state     12 was old state     11
 New state     14 was old state     15
 New state     15 was old state     17
 New state     16 was old state     18
 New state     17 was old state     19
 New state     18 was old state     20
 New state     19 was old state     14
 New state     20 was old state     16
 New state     25 was old state     27
 New state     26 was old state     30
 New state     27 was old state     25
 New state     28 was old state     26
 New state     29 was old state     34
 New state     30 was old state     37
 New state     31 was old state     29
 New state     32 was old state     28
 New state     33 was old state     31
 New state     34 was old state     32
 New state     35 was old state     33
 New state     36 was old state     35
 New state     37 was old state     36
 New state     39 was old state     49
 New state     40 was old state     39
 New state     41 was old state     40
 New state     44 was old state     41
 New state     45 was old state     44
 New state     46 was old state     45
 New state     47 was old state     46
 New state     49 was old state     52
 New state     50 was old state     47
 New state     51 was old state     50
 New state     52 was old state     53
 New state     53 was old state     51
 New state     54 was old state     56
 New state     55 was old state     57
 New state     56 was old state     55
 New state     57 was old state     54
 New state     58 was old state     62
 New state     60 was old state     58
 New state     61 was old state     68
 New state     62 was old state     60
 New state     63 was old state     61
 New state     64 was old state     63
 New state     65 was old state     64
 New state     66 was old state     65
 New state     67 was old state     66
 New state     68 was old state     67
 New state     69 was old state     71
 New state     70 was old state     69
 New state     71 was old state     70
 New state     72 was old state     79
 New state     74 was old state     72
 New state     75 was old state     74
 New state     76 was old state     75
 New state     77 was old state     76
 New state     78 was old state     87
 New state     79 was old state     77
 New state     80 was old state     78
 New state     81 was old state     80
 New state     82 was old state     81
 New state     83 was old state     84
 New state     84 was old state     82
 New state     85 was old state     83
 New state     87 was old state     85
 New state     89 was old state     93
 New state     91 was old state     95
 New state     92 was old state     89
 New state     93 was old state     91
 New state     94 was old state     92
 New state     95 was old state     94
 New state     97 was old state    100
 New state     98 was old state     99
 New state     99 was old state    107
 New state    100 was old state     97
 New state    102 was old state     98
 New state    103 was old state    104
 New state    104 was old state    102
 New state    105 was old state    103
 New state    106 was old state    105
 New state    107 was old state    106
 New state    109 was old state    110
 New state    110 was old state    109
 New state    111 was old state    112
 New state    112 was old state    113
 New state    113 was old state    111
 New state    114 was old state    117
 New state    115 was old state    132
 New state    116 was old state    114
 New state    117 was old state    116
 New state    118 was old state    115
 New state    119 was old state    118
 New state    120 was old state    119
 New state    121 was old state    120
 New state    122 was old state    124
 New state    123 was old state    121
 New state    124 was old state    122
 New state    125 was old state    126
 New state    126 was old state    125
 New state    127 was old state    123
 New state    128 was old state    127
 New state    129 was old state    131
 New state    130 was old state    128
 New state    131 was old state    130
 New state    132 was old state    135
 New state    133 was old state    129
 New state    135 was old state    136
 New state    136 was old state    140
 New state    138 was old state    141
 New state    140 was old state    138
 New state    141 was old state    133
 New state    143 was old state    144
 New state    144 was old state    145
 New state    145 was old state    143
 New state    146 was old state    149
 New state    148 was old state    146
 New state    149 was old state    150
 New state    150 was old state    148
 Iteration     3 Dimension  1200 NMult   900 NNew    300
 New state     60 was old state     61
 New state     61 was old state     60
 New state     71 was old state     72
 New state     72 was old state     71
 New state    148 was old state    149
 New state    149 was old state    148
 Iteration     4 Dimension  1492 NMult  1200 NNew    292
 Iteration     5 Dimension  1582 NMult  1492 NNew     90
 Iteration     6 Dimension  1590 NMult  1582 NNew      8
 Iteration     7 Dimension  1592 NMult  1590 NNew      2
 ***********************************************************************
 Excited states from <AA,BB:AA,BB> singles matrix:
 ***********************************************************************
 
 Ground to excited state transition densities written to RWF  633
 Ground to excited state transition electric dipole moments (Au):
       state          X           Y           Z        Dip. S.      Osc.
         1         3.8783      0.0000      0.0275     15.0416      1.2299
         2        -0.0830      0.0000     -0.0447      0.0089      0.0010
         3         0.0000     -0.4597      0.0000      0.2113      0.0244
         4         0.2786      0.0000      0.0038      0.0776      0.0093
         5         0.0000     -0.4008     -0.0000      0.1606      0.0199
         6         0.5615     -0.0000      0.0591      0.3188      0.0407
         7        -0.0000      1.1370     -0.0000      1.2928      0.1677
         8        -0.0000     -0.2065      0.0000      0.0426      0.0057
         9         0.0003     -0.7005      0.0000      0.4907      0.0681
        10         1.5410      0.0001      0.0534      2.3777      0.3318
        11        -0.0002      0.0276     -0.0000      0.0008      0.0001
        12         0.3041      0.0001      0.0012      0.0925      0.0135
        13        -2.1565      0.0000     -0.0129      4.6508      0.6959
        14         0.0000      1.5424     -0.0001      2.3789      0.3589
        15         0.2953     -0.0000      0.0686      0.0919      0.0141
        16         0.0000     -0.2032     -0.0000      0.0413      0.0064
        17        -0.0015      0.3197      0.0001      0.1022      0.0162
        18        -1.2566     -0.0004     -0.0411      1.5807      0.2515
        19        -0.0005     -0.0002     -0.0001      0.0000      0.0000
        20        -0.3487      0.0001     -0.1615      0.1477      0.0241
        21         0.0001      0.4981      0.0000      0.2481      0.0410
        22         0.2312     -0.0002     -0.0484      0.0558      0.0093
        23         0.6208      0.0000      0.2708      0.4587      0.0784
        24        -1.1354     -0.0001      0.0020      1.2892      0.2221
        25        -1.2641     -0.0001     -0.0068      1.5979      0.2760
        26        -0.0004      0.6171     -0.0000      0.3808      0.0665
        27         0.0193      0.0001      0.0141      0.0006      0.0001
        28        -0.0001     -0.1582      0.0000      0.0250      0.0045
        29        -0.3467      0.0003      0.0102      0.1203      0.0219
        30        -0.0001     -0.7620      0.0000      0.5807      0.1062
        31        -0.1555      0.0012      0.0994      0.0341      0.0063
        32         0.0008      0.2354     -0.0005      0.0554      0.0102
        33         0.0001      0.1584     -0.0000      0.0251      0.0047
        34        -0.1172      0.0001      0.0982      0.0234      0.0044
        35         0.0000     -0.0918     -0.0000      0.0084      0.0016
        36        -0.4961      0.0000      0.0914      0.2545      0.0485
        37         0.0002     -0.0696      0.0000      0.0048      0.0009
        38         0.5591     -0.0001      0.0831      0.3195      0.0612
        39         0.5721     -0.0001     -0.0733      0.3326      0.0638
        40         0.0000      0.2240     -0.0000      0.0502      0.0097
        41        -0.2499      0.0004     -0.1700      0.0914      0.0177
        42         0.0002      0.9488      0.0000      0.9003      0.1748
        43         0.0001      0.4778     -0.0000      0.2283      0.0446
        44        -0.1745     -0.0017      0.0393      0.0320      0.0063
        45         0.0006     -0.5285     -0.0001      0.2793      0.0548
        46        -0.0263     -0.0028      0.0603      0.0043      0.0009
        47        -0.0001      0.8325      0.0002      0.6931      0.1371
        48        -0.0001      0.4323     -0.0000      0.1869      0.0372
        49         0.0001     -0.2335     -0.0000      0.0545      0.0109
        50        -0.8133     -0.0001      0.0686      0.6661      0.1333
        51        -0.0000      0.0126     -0.0000      0.0002      0.0000
        52        -0.4563     -0.0001     -0.0097      0.2083      0.0419
        53         0.5891     -0.0000     -0.0069      0.3471      0.0700
        54         0.4788      0.0001      0.0008      0.2293      0.0463
        55        -0.0001      0.3886      0.0001      0.1510      0.0306
        56         0.0001     -0.1926      0.0002      0.0371      0.0076
        57         0.0508      0.0002      0.1495      0.0249      0.0051
        58        -0.0002      0.9092     -0.0000      0.8267      0.1695
        59         0.3422     -0.0000     -0.2161      0.1638      0.0338
        60        -0.2742     -0.0040     -0.3790      0.2189      0.0452
        61         0.0061     -0.1740      0.0085      0.0304      0.0063
        62         0.0001     -0.0438      0.0000      0.0019      0.0004
        63         0.0914      0.0001      0.0839      0.0154      0.0032
        64        -0.2614     -0.0000     -0.1368      0.0871      0.0182
        65         0.0493      0.0000     -0.0500      0.0049      0.0010
        66        -0.0001     -0.0526     -0.0000      0.0028      0.0006
        67         0.0000      0.1410     -0.0000      0.0199      0.0042
        68         0.0605      0.0001     -0.0644      0.0078      0.0017
        69         0.0000     -0.3296     -0.0000      0.1086      0.0231
        70         0.2749      0.0001     -0.1499      0.0981      0.0209
        71         0.0115     -0.0001     -0.0138      0.0003      0.0001
        72         0.0002      0.0109      0.0001      0.0001      0.0000
        73        -0.4582      0.0001     -0.0977      0.2195      0.0469
        74         0.2383     -0.0000     -0.0110      0.0569      0.0122
        75         0.0002      0.0732     -0.0001      0.0054      0.0011
        76        -0.3163     -0.0001      0.0029      0.1001      0.0216
        77        -0.0003      0.3431      0.0002      0.1177      0.0254
        78         0.2142      0.0003     -0.2712      0.1194      0.0258
        79         0.0000     -0.0816     -0.0001      0.0067      0.0014
        80         0.0000     -0.0851      0.0000      0.0072      0.0016
        81         0.0427     -0.0000     -0.0452      0.0039      0.0009
        82         0.0421      0.0005      0.1723      0.0315      0.0069
        83         0.0001     -0.3912      0.0002      0.1531      0.0338
        84         0.0000      0.2969     -0.0001      0.0882      0.0196
        85        -0.1791      0.0008      0.1113      0.0445      0.0099
        86         0.0002      0.8289     -0.0001      0.6871      0.1537
        87         0.0000     -0.2716     -0.0000      0.0737      0.0165
        88         0.0002      0.3282     -0.0001      0.1077      0.0243
        89         0.1557     -0.0006     -0.1058      0.0354      0.0080
        90        -0.0819     -0.0001      0.0323      0.0077      0.0018
        91         0.0001      0.1613     -0.0001      0.0260      0.0059
        92         0.0000      0.0720      0.0000      0.0052      0.0012
        93         0.0000     -0.0115     -0.0000      0.0001      0.0000
        94         0.0622     -0.0000      0.1815      0.0368      0.0084
        95        -0.0000      0.2379      0.0000      0.0566      0.0129
        96         0.0228      0.0001      0.0297      0.0014      0.0003
        97        -0.0001      0.2179     -0.0000      0.0475      0.0109
        98         0.1983      0.0001      0.0810      0.0459      0.0106
        99        -0.0000     -0.3782      0.0000      0.1430      0.0329
       100        -0.0976     -0.0001     -0.0615      0.0133      0.0031
       101         0.0294     -0.0003     -0.0166      0.0011      0.0003
       102        -0.0000      0.2373     -0.0000      0.0563      0.0130
       103         0.0007      0.2510     -0.0000      0.0630      0.0146
       104         0.0644     -0.0030     -0.0016      0.0042      0.0010
       105        -0.0000     -0.0159      0.0000      0.0003      0.0001
       106        -0.0001     -0.2191     -0.0000      0.0480      0.0112
       107         0.0722     -0.0001      0.0853      0.0125      0.0029
       108        -0.0000      0.0246     -0.0000      0.0006      0.0001
       109        -0.0295     -0.0001     -0.0512      0.0035      0.0008
       110         0.0826     -0.0000     -0.0756      0.0125      0.0030
       111        -0.0001     -0.2342      0.0000      0.0548      0.0129
       112         0.0001      0.2235      0.0002      0.0499      0.0118
       113         0.2182      0.0001      0.1138      0.0606      0.0144
       114         0.0295     -0.0004      0.0668      0.0053      0.0013
       115         0.0001     -0.0229     -0.0001      0.0005      0.0001
       116         0.0440     -0.0003      0.1247      0.0175      0.0042
       117         0.0005      0.0415      0.0003      0.0017      0.0004
       118         0.1326     -0.0006      0.0636      0.0216      0.0052
       119         0.0011      0.0579      0.0005      0.0034      0.0008
       120         0.0563      0.0001     -0.1844      0.0372      0.0089
       121        -0.0737     -0.0000      0.1723      0.0351      0.0084
       122         0.0001     -0.0148     -0.0001      0.0002      0.0001
       123        -0.0001      0.2442      0.0001      0.0596      0.0143
       124         0.0935     -0.0004     -0.1637      0.0355      0.0085
       125         0.0002      0.1970     -0.0003      0.0388      0.0093
       126         0.1295     -0.0002      0.1173      0.0305      0.0073
       127        -0.0000     -0.1250     -0.0000      0.0156      0.0038
       128        -0.1566     -0.0000      0.0429      0.0264      0.0064
       129         0.2003     -0.0000      0.0768      0.0460      0.0111
       130         0.0000      0.0785     -0.0001      0.0062      0.0015
       131         0.0089     -0.0000      0.1389      0.0194      0.0047
       132        -0.0000      0.1108     -0.0001      0.0123      0.0030
       133         0.0001     -0.3212     -0.0001      0.1032      0.0251
       134         0.0003      0.2883      0.0001      0.0831      0.0203
       135         0.1949     -0.0005      0.0444      0.0400      0.0097
       136        -0.2328     -0.0002     -0.0005      0.0542      0.0132
       137         0.0388     -0.0000     -0.0305      0.0024      0.0006
       138        -0.0000     -0.0580     -0.0000      0.0034      0.0008
       139        -0.0014     -0.0002     -0.1950      0.0380      0.0093
       140         0.0001      0.2829     -0.0001      0.0801      0.0197
       141         0.0427     -0.0006     -0.0435      0.0037      0.0009
       142        -0.1570      0.0000     -0.1565      0.0491      0.0121
       143        -0.0002     -0.1825      0.0000      0.0333      0.0082
       144         0.2016     -0.0002     -0.1003      0.0507      0.0125
       145         0.0001     -0.0008     -0.0001      0.0000      0.0000
       146        -0.0000     -0.3038     -0.0000      0.0923      0.0229
       147         0.0733     -0.0001     -0.0774      0.0114      0.0028
       148         0.1020      0.0011     -0.0360      0.0117      0.0029
       149        -0.0001      0.3653      0.0001      0.1335      0.0332
       150        -0.0002      0.1828      0.0000      0.0334      0.0083
 Ground to excited state transition velocity dipole moments (Au):
       state          X           Y           Z        Dip. S.      Osc.
         1        -0.4722     -0.0000     -0.0038      0.2230      1.2120
         2         0.0135     -0.0000      0.0072      0.0002      0.0010
         3        -0.0000      0.0791     -0.0000      0.0063      0.0241
         4        -0.0501     -0.0000     -0.0007      0.0025      0.0093
         5        -0.0000      0.0768      0.0000      0.0059      0.0211
         6        -0.1089      0.0000     -0.0110      0.0120      0.0418
         7         0.0000     -0.2242      0.0000      0.0503      0.1723
         8         0.0000      0.0414     -0.0000      0.0017      0.0058
         9        -0.0001      0.1491     -0.0000      0.0222      0.0712
        10        -0.3221     -0.0000     -0.0114      0.1039      0.3308
        11         0.0000     -0.0053      0.0000      0.0000      0.0001
        12        -0.0664     -0.0000      0.0019      0.0044      0.0135
        13         0.4843     -0.0000      0.0027      0.2346      0.6967
        14        -0.0000     -0.3511      0.0000      0.1232      0.3631
        15        -0.0684      0.0000     -0.0159      0.0049      0.0142
        16        -0.0000      0.0461      0.0000      0.0021      0.0061
        17         0.0003     -0.0786     -0.0000      0.0062      0.0173
        18         0.2972      0.0001      0.0093      0.0884      0.2470
        19         0.0001      0.0008      0.0000      0.0000      0.0000
        20         0.0851     -0.0000      0.0402      0.0089      0.0241
        21        -0.0000     -0.1227     -0.0000      0.0151      0.0406
        22        -0.0564      0.0000      0.0126      0.0033      0.0089
        23        -0.1591     -0.0000     -0.0686      0.0300      0.0780
        24         0.2910      0.0000     -0.0024      0.0847      0.2184
        25         0.3239      0.0000      0.0042      0.1049      0.2700
        26         0.0001     -0.1601      0.0000      0.0256      0.0652
        27        -0.0053     -0.0000     -0.0010      0.0000      0.0001
        28         0.0000      0.0427     -0.0000      0.0018      0.0045
        29         0.0967     -0.0001     -0.0031      0.0094      0.0229
        30         0.0000      0.2084     -0.0000      0.0434      0.1055
        31         0.0431     -0.0003     -0.0253      0.0025      0.0060
        32        -0.0002     -0.0646      0.0001      0.0042      0.0101
        33        -0.0000     -0.0435      0.0000      0.0019      0.0045
        34         0.0328     -0.0000     -0.0279      0.0019      0.0044
        35        -0.0000      0.0250      0.0000      0.0006      0.0015
        36         0.1427     -0.0000     -0.0266      0.0211      0.0492
        37        -0.0001      0.0217      0.0000      0.0005      0.0011
        38        -0.1641      0.0000     -0.0232      0.0275      0.0637
        39        -0.1671      0.0000      0.0208      0.0283      0.0657
        40        -0.0000     -0.0647      0.0000      0.0042      0.0097
        41         0.0720     -0.0001      0.0491      0.0076      0.0174
        42        -0.0001     -0.2742     -0.0000      0.0752      0.1721
        43        -0.0000     -0.1386     -0.0000      0.0192      0.0436
        44         0.0521      0.0005     -0.0112      0.0028      0.0064
        45        -0.0002      0.1549      0.0000      0.0240      0.0544
        46         0.0081      0.0008     -0.0179      0.0004      0.0009
        47         0.0000     -0.2449     -0.0001      0.0600      0.1347
        48         0.0000     -0.1260      0.0000      0.0159      0.0355
        49        -0.0000      0.0675      0.0000      0.0046      0.0101
        50         0.2436      0.0000     -0.0187      0.0597      0.1326
        51         0.0000     -0.0027      0.0000      0.0000      0.0000
        52         0.1397      0.0000      0.0007      0.0195      0.0431
        53        -0.1812     -0.0000      0.0034      0.0329      0.0725
        54        -0.1474     -0.0000     -0.0023      0.0217      0.0478
        55         0.0000     -0.1160     -0.0000      0.0135      0.0295
        56        -0.0000      0.0595     -0.0000      0.0035      0.0077
        57        -0.0152     -0.0001     -0.0395      0.0018      0.0039
        58         0.0000     -0.2749      0.0000      0.0755      0.1638
        59        -0.1070      0.0000      0.0579      0.0148      0.0319
        60         0.0855      0.0012      0.1044      0.0182      0.0391
        61        -0.0019      0.0510     -0.0024      0.0026      0.0056
        62        -0.0000      0.0139     -0.0000      0.0002      0.0004
        63        -0.0303     -0.0000     -0.0260      0.0016      0.0034
        64         0.0817      0.0000      0.0409      0.0083      0.0177
        65        -0.0150     -0.0000      0.0154      0.0005      0.0010
        66         0.0000      0.0167      0.0000      0.0003      0.0006
        67        -0.0000     -0.0439     -0.0000      0.0019      0.0041
        68        -0.0188     -0.0000      0.0197      0.0007      0.0016
        69        -0.0000      0.1035      0.0000      0.0107      0.0224
        70        -0.0866     -0.0000      0.0463      0.0096      0.0201
        71        -0.0070      0.0000      0.0050      0.0001      0.0002
        72        -0.0001     -0.0039     -0.0000      0.0000      0.0000
        73         0.1502     -0.0000      0.0289      0.0234      0.0487
        74        -0.0760     -0.0000      0.0011      0.0058      0.0120
        75        -0.0001     -0.0241      0.0000      0.0006      0.0012
        76         0.1033      0.0000     -0.0015      0.0107      0.0220
        77         0.0001     -0.1073     -0.0001      0.0115      0.0237
        78        -0.0683     -0.0001      0.0829      0.0115      0.0237
        79        -0.0000      0.0261      0.0000      0.0007      0.0014
        80         0.0000      0.0262     -0.0000      0.0007      0.0014
        81        -0.0122      0.0000      0.0162      0.0004      0.0008
        82        -0.0153     -0.0002     -0.0462      0.0024      0.0048
        83        -0.0000      0.1308     -0.0000      0.0171      0.0345
        84        -0.0000     -0.1006      0.0000      0.0101      0.0203
        85         0.0575     -0.0003     -0.0375      0.0047      0.0094
        86        -0.0001     -0.2780      0.0000      0.0773      0.1535
        87        -0.0000      0.0903      0.0000      0.0082      0.0162
        88        -0.0001     -0.1127      0.0000      0.0127      0.0250
        89        -0.0535      0.0002      0.0373      0.0043      0.0084
        90         0.0279      0.0000     -0.0102      0.0009      0.0017
        91        -0.0000     -0.0554      0.0000      0.0031      0.0060
        92        -0.0000     -0.0231     -0.0000      0.0005      0.0010
        93        -0.0000      0.0052      0.0000      0.0000      0.0001
        94        -0.0220      0.0000     -0.0589      0.0039      0.0077
        95         0.0000     -0.0833     -0.0000      0.0069      0.0135
        96        -0.0083     -0.0000     -0.0081      0.0001      0.0003
        97         0.0000     -0.0742      0.0000      0.0055      0.0106
        98        -0.0679     -0.0000     -0.0296      0.0055      0.0106
        99         0.0000      0.1334     -0.0000      0.0178      0.0343
       100         0.0325      0.0000      0.0205      0.0015      0.0028
       101        -0.0097      0.0001      0.0080      0.0002      0.0003
       102         0.0000     -0.0794      0.0000      0.0063      0.0121
       103        -0.0003     -0.0850      0.0000      0.0072      0.0138
       104        -0.0227      0.0010      0.0012      0.0005      0.0010
       105         0.0000      0.0053     -0.0000      0.0000      0.0001
       106         0.0000      0.0761      0.0000      0.0058      0.0110
       107        -0.0255      0.0000     -0.0277      0.0014      0.0027
       108         0.0000     -0.0074      0.0000      0.0001      0.0001
       109         0.0104      0.0000      0.0136      0.0003      0.0006
       110        -0.0298      0.0000      0.0232      0.0014      0.0027
       111         0.0000      0.0813     -0.0000      0.0066      0.0124
       112        -0.0000     -0.0794     -0.0001      0.0063      0.0118
       113        -0.0775     -0.0000     -0.0370      0.0074      0.0138
       114        -0.0115      0.0001     -0.0235      0.0007      0.0013
       115        -0.0000      0.0063      0.0000      0.0000      0.0001
       116        -0.0115      0.0001     -0.0386      0.0016      0.0030
       117        -0.0002     -0.0130     -0.0001      0.0002      0.0003
       118        -0.0468      0.0002     -0.0210      0.0026      0.0049
       119        -0.0004     -0.0221     -0.0002      0.0005      0.0009
       120        -0.0209     -0.0000      0.0577      0.0038      0.0070
       121         0.0258      0.0000     -0.0552      0.0037      0.0069
       122        -0.0000      0.0065      0.0000      0.0000      0.0001
       123         0.0000     -0.0839     -0.0000      0.0070      0.0130
       124        -0.0387      0.0001      0.0533      0.0043      0.0080
       125        -0.0001     -0.0717      0.0001      0.0051      0.0095
       126        -0.0469      0.0001     -0.0378      0.0036      0.0067
       127         0.0000      0.0462      0.0000      0.0021      0.0039
       128         0.0548      0.0000     -0.0127      0.0032      0.0058
       129        -0.0714      0.0000     -0.0292      0.0060      0.0109
       130        -0.0000     -0.0289      0.0000      0.0008      0.0015
       131        -0.0054      0.0000     -0.0483      0.0024      0.0043
       132         0.0000     -0.0356      0.0000      0.0013      0.0023
       133        -0.0000      0.1192      0.0000      0.0142      0.0260
       134        -0.0001     -0.1032     -0.0000      0.0107      0.0194
       135        -0.0702      0.0002     -0.0171      0.0052      0.0095
       136         0.0815      0.0001     -0.0010      0.0066      0.0121
       137        -0.0184      0.0000      0.0107      0.0005      0.0008
       138        -0.0000      0.0194      0.0000      0.0004      0.0007
       139         0.0022      0.0001      0.0576      0.0033      0.0060
       140        -0.0000     -0.1033      0.0000      0.0107      0.0193
       141        -0.0176      0.0002      0.0180      0.0006      0.0011
       142         0.0571     -0.0000      0.0552      0.0063      0.0114
       143         0.0001      0.0634     -0.0000      0.0040      0.0072
       144        -0.0738      0.0001      0.0357      0.0067      0.0121
       145        -0.0001      0.0004      0.0000      0.0000      0.0000
       146         0.0000      0.1106      0.0000      0.0122      0.0219
       147        -0.0273      0.0000      0.0255      0.0014      0.0025
       148        -0.0383     -0.0004      0.0151      0.0017      0.0030
       149         0.0000     -0.1338     -0.0000      0.0179      0.0319
       150         0.0001     -0.0673     -0.0000      0.0045      0.0081
 Ground to excited state transition magnetic dipole moments (Au):
       state          X           Y           Z
         1         0.0314      0.0001      0.7047
         2         0.2592     -0.0000      0.1914
         3         0.0000      0.0506      0.0000
         4         0.0022      0.0001      0.6049
         5        -0.0000     -0.0224     -0.0000
         6         0.0511     -0.0000     -1.4803
         7        -0.0000      0.2427     -0.0000
         8         0.0000      0.4211      0.0001
         9         0.0000     -0.0374     -0.0005
        10         0.1442      0.0000     -2.0943
        11        -0.0000      0.2852      0.0003
        12        -0.3325      0.0000     -0.0163
        13         0.0816     -0.0001     -2.2786
        14        -0.0000      0.1455      0.0001
        15         0.0680     -0.0001     -3.1908
        16         0.0000      0.1547      0.0001
        17        -0.0001      0.0811      0.0006
        18         0.0007     -0.0001      0.5796
        19         0.0001      0.1214      0.0001
        20         0.2650     -0.0000      0.3019
        21         0.0000     -0.0159     -0.0002
        22         0.1004      0.0000     -0.8558
        23        -0.1315      0.0000     -1.2328
        24         0.5557     -0.0000      1.7888
        25        -0.6471     -0.0000      2.1861
        26        -0.0000      0.1190      0.0006
        27        -0.0536      0.0000     -0.1482
        28        -0.0001      0.0807      0.0003
        29        -0.0463     -0.0000     -1.1949
        30        -0.0000     -0.0125     -0.0005
        31        -0.1182     -0.0009     -0.2815
        32         0.0006     -0.1701      0.0015
        33        -0.0001      0.2927      0.0001
        34         0.1511      0.0001     -0.2712
        35         0.0000     -0.5626     -0.0001
        36         0.4791     -0.0001     -0.4701
        37        -0.0001     -0.0744      0.0000
        38         0.3237      0.0001      0.8583
        39        -0.2398      0.0000      1.4449
        40        -0.0002     -0.0379      0.0003
        41        -0.4961      0.0001     -0.3098
        42         0.0003      0.1976      0.0001
        43         0.0001      0.0403      0.0002
        44        -0.0402      0.0023     -0.2266
        45         0.0000      0.6039      0.0008
        46        -0.6159     -0.0002      0.4609
        47        -0.0022      0.0181      0.0016
        48        -0.0000      0.1201      0.0002
        49        -0.0000      0.0485     -0.0003
        50        -0.2552     -0.0000      2.1690
        51         0.0001     -0.0286     -0.0002
        52         0.4629      0.0000      1.6306
        53         0.3391      0.0001     -2.3560
        54        -0.0641      0.0001     -1.1813
        55         0.0001      0.0720      0.0001
        56         0.0001      0.3639     -0.0007
        57         0.1177     -0.0005     -0.7281
        58         0.0000      0.3643      0.0003
        59        -0.2440     -0.0001      0.3784
        60         0.1696      0.0155     -0.5582
        61        -0.0039      0.6893      0.0130
        62        -0.0000      0.4825      0.0001
        63        -0.2736     -0.0000      1.1416
        64         0.0883     -0.0000      0.9401
        65        -0.2650     -0.0000     -0.3163
        66        -0.0000      0.1767      0.0002
        67        -0.0001      0.6366      0.0000
        68        -0.1697     -0.0001     -0.1934
        69        -0.0001     -0.1676      0.0001
        70        -0.0527     -0.0001     -0.4739
        71         0.2109      0.0012     -1.0972
        72         0.0003     -0.8888     -0.0017
        73        -0.0552     -0.0005      0.6721
        74         0.2136     -0.0002     -0.2769
        75         0.0001      0.3409      0.0000
        76         0.1633     -0.0000      0.1246
        77        -0.0004      0.3042      0.0001
        78         0.5428      0.0002     -0.1537
        79         0.0002      0.4470     -0.0000
        80        -0.0001      0.8559     -0.0002
        81         0.7165      0.0000     -0.0329
        82         0.1800     -0.0006      0.0757
        83         0.0004      0.6435     -0.0001
        84        -0.0001      0.4740      0.0000
        85        -0.1053      0.0001      0.0385
        86         0.0001     -0.0938     -0.0001
        87         0.0000      0.4435     -0.0001
        88        -0.0009      0.1265     -0.0008
        89        -0.6362      0.0000     -0.5545
        90        -0.1478     -0.0002      0.0190
        91        -0.0000     -0.6889     -0.0002
        92         0.0000      0.9256     -0.0000
        93        -0.0000      0.3982     -0.0001
        94         0.2066      0.0000      0.0643
        95        -0.0001     -0.0923     -0.0001
        96         0.1651     -0.0001     -0.0070
        97        -0.0005      0.3926      0.0000
        98         0.6507      0.0003      0.1568
        99        -0.0001      0.0420     -0.0000
       100        -0.1131     -0.0000     -0.1013
       101         0.0385      0.0003     -0.0883
       102         0.0000     -0.4017     -0.0002
       103        -0.0020      0.3580      0.0030
       104        -0.1527     -0.0047      0.2530
       105         0.0002     -0.5691     -0.0002
       106        -0.0001      0.0282     -0.0003
       107         0.3276     -0.0002      0.6166
       108        -0.0002     -0.1667      0.0001
       109         0.5890     -0.0000      0.1014
       110        -0.5129     -0.0001      0.4390
       111         0.0001     -0.1882     -0.0001
       112         0.0010     -0.9196     -0.0006
       113         0.4240     -0.0002     -0.9119
       114         0.5468      0.0021     -0.4626
       115         0.0002     -0.4037     -0.0004
       116         0.0009      0.0005      0.2329
       117         0.0039     -0.2676      0.0017
       118         0.9513     -0.0043      0.4105
       119         0.0079      0.6486      0.0034
       120        -0.8070     -0.0001      0.2898
       121        -0.0733      0.0000      0.1819
       122        -0.0001      0.0300     -0.0004
       123        -0.0001      0.1609      0.0002
       124        -0.3346      0.0015     -0.2932
       125        -0.0002     -0.6267      0.0003
       126         0.2903      0.0003      1.2226
       127        -0.0001     -0.6149     -0.0003
       128         1.0801      0.0002      0.7608
       129         0.1185     -0.0000     -0.3312
       130        -0.0005      0.2496      0.0000
       131         0.5809      0.0003     -0.4589
       132        -0.0001     -0.7753     -0.0003
       133        -0.0000     -0.3641     -0.0004
       134        -0.0002      0.1307     -0.0008
       135        -0.0894     -0.0001     -0.6452
       136        -0.2431      0.0001      0.9961
       137         0.0347     -0.0001      0.1141
       138         0.0001      1.4701     -0.0003
       139        -0.5455      0.0002     -0.1763
       140         0.0007     -0.7628     -0.0010
       141         0.3308      0.0014     -0.5212
       142         0.4890     -0.0000      0.0281
       143         0.0001     -0.5356      0.0005
       144         0.0277      0.0000     -0.1407
       145         0.0000     -0.0347      0.0000
       146         0.0001     -0.1018      0.0000
       147        -0.7098      0.0001     -0.2333
       148        -0.2837      0.0007      0.1156
       149         0.0004     -0.6592     -0.0002
       150         0.0004      1.2138      0.0001
 Ground to excited state transition velocity quadrupole moments (Au):
       state          XX          YY          ZZ          XY          XZ          YZ
         1         0.0001     -0.0000     -0.0000      0.4632     -0.0000      0.0321
         2        -0.0001      0.0000      0.0000      0.0036      0.0000     -0.0405
         3        -0.5726      0.0992      0.0030      0.0000     -0.0247      0.0000
         4         0.0000      0.0000      0.0000     -0.1035     -0.0000      0.0264
         5         3.0520     -0.1367      0.0089      0.0000      0.1135      0.0000
         6         0.0001     -0.0000      0.0000     -0.8186      0.0000      0.0105
         7         0.2034      0.4199      0.0103     -0.0000     -0.0420     -0.0000
         8         0.1185     -0.0740     -0.0027      0.0001      0.1067      0.0000
         9         1.2873     -0.0613      0.0028     -0.0002      0.0563      0.0000
        10        -0.0003      0.0000      0.0000     -0.8259     -0.0000      0.0371
        11         0.5668      0.0142      0.0035      0.0001     -0.0232     -0.0000
        12         0.0001      0.0001     -0.0000      0.2359     -0.0000      0.0517
        13        -0.0001      0.0000      0.0000     -3.1289      0.0001     -0.0107
        14         6.3600      0.7140     -0.0573      0.0000      0.0279     -0.0000
        15         0.0000     -0.0000      0.0000     -2.3974      0.0001     -0.0397
        16        -5.9742      0.8262      0.0226      0.0001     -0.2672      0.0000
        17         0.4287      0.1381     -0.0186     -0.0013     -0.0927     -0.0001
        18        -0.0007     -0.0002      0.0000     -1.1945      0.0001      0.0050
        19         0.2024      0.0660     -0.0162     -0.0006     -0.0173      0.0001
        20        -0.0007      0.0000     -0.0000     -0.5654     -0.0000      0.1917
        21        -0.8096     -0.1700      0.0019     -0.0001      0.0092      0.0000
        22         0.0002      0.0000      0.0000     -0.7305     -0.0000      0.1029
        23        -0.0005      0.0000      0.0000     -0.3757     -0.0000     -0.2093
        24         0.0011     -0.0002     -0.0000      0.6773      0.0000      0.1542
[...]
    23  C    0.000000  -0.000000  -0.000000  -0.000024   0.000019   0.000096
    24  H    0.000000  -0.000002   0.000042   0.000012   0.000000  -0.000002
    25  H   -0.058069   0.012175  -0.006421  -0.000000   0.000000  -0.000000
    26  H    0.459687  -0.058300   0.013282  -0.000000   0.000000  -0.000000
    27  H   -0.055327   0.452108  -0.057427  -0.000000  -0.000000   0.000000
    28  H    0.007560  -0.031411   0.439847   0.000000  -0.000000   0.000000
    29  H    0.000000  -0.000000   0.000000   0.460286  -0.058069   0.012175
    30  H    0.000000  -0.000000   0.000000  -0.063929   0.459686  -0.058300
    31  H   -0.000000   0.000000   0.000000   0.011222  -0.055327   0.452107
    32  H   -0.000000   0.000000  -0.000000  -0.002514   0.007559  -0.031409
    33  H    0.000022  -0.000093   0.001430   0.000000  -0.000000   0.000000
    34  H   -0.000269   0.002871   0.004394  -0.000000   0.000000  -0.000000
    35  H    0.000033   0.000006   0.002101   0.000000  -0.000000   0.000000
    36  H   -0.000006   0.000036   0.000445  -0.000000   0.000000  -0.000000
    37  H    0.000001  -0.000010   0.000018  -0.000000   0.000000   0.000000
    38  H   -0.000000   0.000000  -0.000001  -0.000053   0.000022  -0.000093
    39  H    0.000000  -0.000000   0.000000   0.000324  -0.000268   0.002869
    40  H   -0.000000   0.000000  -0.000000  -0.000054   0.000033   0.000007
    41  H    0.000000  -0.000000   0.000000   0.000024  -0.000006   0.000036
    42  H    0.000000   0.000000   0.000000  -0.000002   0.000001  -0.000010
              19         20         21         22         23         24
     1  C    0.000060  -0.058592  -0.000211   0.005354   0.002088  -0.009955
     2  C   -0.000134   0.001586  -0.001612   0.001587  -0.001607   0.378849
     3  C    0.000152   0.005369   0.002083  -0.058596  -0.000215  -0.009930
     4  N   -0.071391   0.000061   0.000026   0.253457  -0.034143  -0.006004
     5  S    0.000042   0.002848  -0.000228  -0.000012  -0.000011   0.002856
     6  C    0.000001   0.012515   0.001251   0.000010   0.000003  -0.000326
     7  C   -0.000000  -0.045061   0.001662  -0.000027   0.000006   0.000630
     8  N   -0.000001   0.253450  -0.034143   0.000061   0.000026  -0.006002
     9  S    0.026604  -0.000012  -0.000011   0.002848  -0.000228   0.002856
    10  C    0.098969   0.000010   0.000003   0.012513   0.001250  -0.000325
    11  C    0.230038  -0.000027   0.000006  -0.045063   0.001662   0.000630
    12  C    0.000000   0.000262  -0.000024   0.000000  -0.000000   0.000012
    13  C   -0.000000  -0.000135   0.000019  -0.000000   0.000000   0.000000
    14  C    0.000000   0.000514   0.000095   0.000000  -0.000000  -0.000002
    15  C   -0.000000  -0.003887  -0.005691  -0.000001  -0.000000   0.000042
    16  C   -0.107553   0.000000  -0.000000   0.000262  -0.000024   0.000012
    17  C    0.065072  -0.000000   0.000000  -0.000135   0.000019   0.000000
    18  C    0.386005   0.000000  -0.000000   0.000513   0.000096  -0.000002
    19  C    5.303454  -0.000001  -0.000000  -0.003887  -0.005691   0.000041
    20  C   -0.000001   5.012290   0.290559  -0.000499  -0.000054   0.001562
    21  C   -0.000000   0.290559   4.968613  -0.000054   0.000037  -0.004007
    22  C   -0.003887  -0.000499  -0.000054   5.012321   0.290544   0.001563
    23  C   -0.005691  -0.000054   0.000037   0.290544   4.968635  -0.004007
    24  H    0.000041   0.001562  -0.004007   0.001563  -0.004007   0.423540
    25  H    0.000000   0.000013  -0.000001  -0.000000  -0.000000  -0.000000
    26  H    0.000000  -0.000002   0.000000  -0.000000  -0.000000   0.000000
    27  H    0.000000  -0.000005   0.000004   0.000000   0.000000  -0.000000
    28  H   -0.000000   0.002742  -0.001793  -0.000000   0.000000  -0.000006
    29  H   -0.006421  -0.000000  -0.000000   0.000013  -0.000001  -0.000000
    30  H    0.013282  -0.000000  -0.000000  -0.000002   0.000000   0.000000
    31  H   -0.057426   0.000000   0.000000  -0.000005   0.000004  -0.000000
    32  H    0.439843  -0.000000   0.000000   0.002743  -0.001794  -0.000006
    33  H   -0.000001   0.399744  -0.029677   0.000106   0.000203   0.000943
    34  H    0.000000   0.402942  -0.027025   0.000005  -0.000001   0.000390
    35  H   -0.000000  -0.032893   0.410130   0.000000  -0.000000   0.000343
    36  H    0.000000  -0.036136   0.415180  -0.000084   0.000016  -0.000838
    37  H    0.000000  -0.040270   0.414973   0.000019   0.000001  -0.000002
    38  H    0.001430   0.000106   0.000203   0.399759  -0.029681   0.000939
    39  H    0.004396   0.000005  -0.000001   0.402934  -0.027023   0.000390
    40  H    0.002100   0.000000  -0.000000  -0.032886   0.410125   0.000343
    41  H    0.000445  -0.000083   0.000016  -0.036150   0.415191  -0.000838
    42  H    0.000018   0.000019   0.000001  -0.040269   0.414970  -0.000002
              25         26         27         28         29         30
     1  C    0.000179   0.000011   0.000022  -0.000746   0.000004  -0.000000
     2  C   -0.000023   0.000000  -0.000002   0.000062  -0.000023   0.000000
     3  C    0.000004  -0.000000  -0.000000   0.000007   0.000179   0.000011
     4  N    0.000000   0.000000  -0.000000  -0.000000   0.000003   0.000019
     5  S   -0.004271  -0.000161   0.000010  -0.000045  -0.000028  -0.000000
     6  C   -0.070536   0.014001  -0.003640   0.009002  -0.000000  -0.000000
     7  C    0.022405  -0.004691   0.013900  -0.051722   0.000000   0.000000
     8  N    0.000003   0.000019  -0.000079  -0.002807   0.000000   0.000000
     9  S   -0.000028  -0.000000  -0.000000   0.000000  -0.004271  -0.000161
    10  C   -0.000000  -0.000000  -0.000000   0.000000  -0.070536   0.014001
    11  C    0.000000   0.000000   0.000000  -0.000000   0.022405  -0.004691
    12  C    0.460285  -0.063929   0.011223  -0.002514  -0.000000  -0.000000
    13  C   -0.058069   0.459687  -0.055327   0.007560   0.000000   0.000000
    14  C    0.012175  -0.058300   0.452108  -0.031411  -0.000000  -0.000000
    15  C   -0.006421   0.013282  -0.057427   0.439847   0.000000   0.000000
    16  C   -0.000000  -0.000000  -0.000000   0.000000   0.460286  -0.063929
    17  C    0.000000   0.000000  -0.000000  -0.000000  -0.058069   0.459686
    18  C   -0.000000  -0.000000   0.000000   0.000000   0.012175  -0.058300
    19  C    0.000000   0.000000   0.000000  -0.000000  -0.006421   0.013282
    20  C    0.000013  -0.000002  -0.000005   0.002742  -0.000000  -0.000000
    21  C   -0.000001   0.000000   0.000004  -0.001793  -0.000000  -0.000000
    22  C   -0.000000  -0.000000   0.000000  -0.000000   0.000013  -0.000002
    23  C   -0.000000  -0.000000   0.000000   0.000000  -0.000001   0.000000
    24  H   -0.000000   0.000000  -0.000000  -0.000006  -0.000000   0.000000
    25  H    0.471562  -0.006226  -0.000017  -0.000012  -0.000000  -0.000000
    26  H   -0.006226   0.479040  -0.006274  -0.000005  -0.000000  -0.000000
    27  H   -0.000017  -0.006274   0.476339  -0.005394   0.000000   0.000000
    28  H   -0.000012  -0.000005  -0.005394   0.449532   0.000000   0.000000
    29  H   -0.000000  -0.000000   0.000000   0.000000   0.471562  -0.006226
    30  H   -0.000000  -0.000000   0.000000   0.000000  -0.006226   0.479040
    31  H    0.000000   0.000000  -0.000000   0.000000  -0.000017  -0.006274
    32  H    0.000000   0.000000   0.000000  -0.000000  -0.000012  -0.000005
    33  H   -0.000001   0.000000  -0.000001   0.000443   0.000000  -0.000000
    34  H    0.000002  -0.000001  -0.000013  -0.001671  -0.000000   0.000000
    35  H   -0.000000   0.000000   0.000002   0.000433   0.000000  -0.000000
    36  H    0.000000  -0.000000  -0.000000   0.000020  -0.000000   0.000000
    37  H    0.000000  -0.000000   0.000000   0.000091   0.000000   0.000000
    38  H    0.000000  -0.000000   0.000000  -0.000000  -0.000001   0.000000
    39  H   -0.000000   0.000000  -0.000000   0.000000   0.000002  -0.000001
    40  H    0.000000  -0.000000   0.000000  -0.000000  -0.000000   0.000000
    41  H   -0.000000   0.000000  -0.000000  -0.000000   0.000000  -0.000000
    42  H    0.000000   0.000000   0.000000   0.000000   0.000000  -0.000000
              31         32         33         34         35         36
     1  C   -0.000000   0.000007  -0.032963   0.008746  -0.001241   0.000261
     2  C   -0.000002   0.000062   0.018040  -0.000620   0.000384   0.002471
     3  C    0.000022  -0.000746   0.004199  -0.000024  -0.000073   0.001007
     4  N   -0.000079  -0.002807  -0.000074  -0.000001  -0.000001   0.000010
     5  S   -0.000000   0.000000  -0.000051  -0.000366  -0.000021  -0.000142
     6  C   -0.000000   0.000000  -0.000347  -0.001065   0.000564  -0.000212
     7  C    0.000000  -0.000000   0.008092  -0.021580   0.001269  -0.001877
     8  N   -0.000000  -0.000000  -0.019789  -0.017567  -0.001063   0.000137
     9  S    0.000010  -0.000045  -0.000021  -0.000001   0.000001  -0.000010
    10  C   -0.003640   0.009001   0.000012  -0.000000   0.000000   0.000001
    11  C    0.013900  -0.051719  -0.000022   0.000000  -0.000000   0.000006
    12  C   -0.000000   0.000000  -0.000053   0.000325  -0.000054   0.000024
    13  C   -0.000000  -0.000000   0.000022  -0.000269   0.000033  -0.000006
    14  C    0.000000   0.000000  -0.000093   0.002871   0.000006   0.000036
    15  C    0.000000  -0.000000   0.001430   0.004394   0.002101   0.000445
    16  C    0.011222  -0.002514   0.000000  -0.000000   0.000000  -0.000000
    17  C   -0.055327   0.007559  -0.000000   0.000000  -0.000000   0.000000
    18  C    0.452107  -0.031409   0.000000  -0.000000   0.000000  -0.000000
    19  C   -0.057426   0.439843  -0.000001   0.000000  -0.000000   0.000000
    20  C    0.000000  -0.000000   0.399744   0.402942  -0.032893  -0.036136
    21  C    0.000000   0.000000  -0.029677  -0.027025   0.410130   0.415180
    22  C   -0.000005   0.002743   0.000106   0.000005   0.000000  -0.000084
    23  C    0.000004  -0.001794   0.000203  -0.000001  -0.000000   0.000016
    24  H   -0.000000  -0.000006   0.000943   0.000390   0.000343  -0.000838
    25  H    0.000000   0.000000  -0.000001   0.000002  -0.000000   0.000000
    26  H    0.000000   0.000000   0.000000  -0.000001   0.000000  -0.000000
    27  H   -0.000000   0.000000  -0.000001  -0.000013   0.000002  -0.000000
    28  H    0.000000  -0.000000   0.000443  -0.001671   0.000433   0.000020
    29  H   -0.000017  -0.000012   0.000000  -0.000000   0.000000  -0.000000
    30  H   -0.006274  -0.000005  -0.000000   0.000000  -0.000000   0.000000
    31  H    0.476339  -0.005393   0.000000  -0.000000   0.000000  -0.000000
    32  H   -0.005393   0.449525  -0.000000   0.000000  -0.000000  -0.000000
    33  H    0.000000  -0.000000   0.502578  -0.019272   0.004098  -0.004210
    34  H   -0.000000   0.000000  -0.019272   0.499217  -0.004700   0.003824
    35  H    0.000000  -0.000000   0.004098  -0.004700   0.513489  -0.023368
    36  H   -0.000000  -0.000000  -0.004210   0.003824  -0.023368   0.512173
    37  H    0.000000   0.000000  -0.001366  -0.001394  -0.019190  -0.019758
    38  H   -0.000001   0.000443  -0.000067  -0.000005   0.000007   0.000452
    39  H   -0.000013  -0.001670  -0.000005  -0.000000  -0.000000   0.000002
    40  H    0.000002   0.000433   0.000007  -0.000000   0.000000  -0.000000
    41  H   -0.000000   0.000020   0.000452   0.000002  -0.000000   0.000004
    42  H    0.000000   0.000091  -0.000055  -0.000000   0.000000   0.000003
              37         38         39         40         41         42
     1  C    0.000307   0.004192  -0.000023  -0.000073   0.001010  -0.000014
     2  C   -0.000268   0.018040  -0.000618   0.000383   0.002471  -0.000268
     3  C   -0.000014  -0.032954   0.008743  -0.001239   0.000259   0.000307
     4  N   -0.000000  -0.019795  -0.017568  -0.001063   0.000139   0.005186
     5  S    0.000013  -0.000021  -0.000001   0.000001  -0.000010   0.000000
     6  C   -0.000019   0.000012  -0.000000   0.000000   0.000001  -0.000000
     7  C    0.000074  -0.000022   0.000000  -0.000000   0.000006   0.000000
     8  N    0.005186  -0.000074  -0.000001  -0.000001   0.000010  -0.000000
     9  S    0.000000  -0.000051  -0.000366  -0.000021  -0.000142   0.000013
    10  C   -0.000000  -0.000346  -0.001065   0.000564  -0.000212  -0.000019
    11  C    0.000000   0.008090  -0.021577   0.001268  -0.001876   0.000074
    12  C   -0.000002   0.000000  -0.000000   0.000000  -0.000000  -0.000000
    13  C    0.000001  -0.000000   0.000000  -0.000000   0.000000   0.000000
    14  C   -0.000010   0.000000  -0.000000   0.000000  -0.000000   0.000000
    15  C    0.000018  -0.000001   0.000000  -0.000000   0.000000   0.000000
    16  C   -0.000000  -0.000053   0.000324  -0.000054   0.000024  -0.000002
    17  C    0.000000   0.000022  -0.000268   0.000033  -0.000006   0.000001
    18  C    0.000000  -0.000093   0.002869   0.000007   0.000036  -0.000010
    19  C    0.000000   0.001430   0.004396   0.002100   0.000445   0.000018
    20  C   -0.040270   0.000106   0.000005   0.000000  -0.000083   0.000019
    21  C    0.414973   0.000203  -0.000001  -0.000000   0.000016   0.000001
    22  C    0.000019   0.399759   0.402934  -0.032886  -0.036150  -0.040269
    23  C    0.000001  -0.029681  -0.027023   0.410125   0.415191   0.414970
    24  H   -0.000002   0.000939   0.000390   0.000343  -0.000838  -0.000002
    25  H    0.000000   0.000000  -0.000000   0.000000  -0.000000   0.000000
    26  H   -0.000000  -0.000000   0.000000  -0.000000   0.000000   0.000000
    27  H    0.000000   0.000000  -0.000000   0.000000  -0.000000   0.000000
    28  H    0.000091  -0.000000   0.000000  -0.000000  -0.000000   0.000000
    29  H    0.000000  -0.000001   0.000002  -0.000000   0.000000   0.000000
    30  H    0.000000   0.000000  -0.000001   0.000000  -0.000000  -0.000000
    31  H    0.000000  -0.000001  -0.000013   0.000002  -0.000000   0.000000
    32  H    0.000000   0.000443  -0.001670   0.000433   0.000020   0.000091
    33  H   -0.001366  -0.000067  -0.000005   0.000007   0.000452  -0.000055
    34  H   -0.001394  -0.000005  -0.000000  -0.000000   0.000002  -0.000000
    35  H   -0.019190   0.000007  -0.000000   0.000000  -0.000000   0.000000
    36  H   -0.019758   0.000452   0.000002  -0.000000   0.000004   0.000003
    37  H    0.508955  -0.000055  -0.000000   0.000000   0.000003  -0.000002
    38  H   -0.000055   0.502571  -0.019267   0.004098  -0.004209  -0.001367
    39  H   -0.000000  -0.019267   0.499210  -0.004700   0.003823  -0.001393
    40  H    0.000000   0.004098  -0.004700   0.513490  -0.023368  -0.019190
    41  H    0.000003  -0.004209   0.003823  -0.023368   0.512169  -0.019758
    42  H   -0.000002  -0.001367  -0.001393  -0.019190  -0.019758   0.508958
 Mulliken charges:
               1
     1  C    0.183241
     2  C   -0.421330
     3  C    0.183227
     4  N    0.037083
     5  S    0.056781
     6  C   -0.018481
     7  C    0.204295
     8  N    0.037076
     9  S    0.056782
    10  C   -0.018478
    11  C    0.204292
    12  C   -0.190822
    13  C   -0.169259
    14  C   -0.125600
    15  C   -0.319445
    16  C   -0.190818
    17  C   -0.169257
    18  C   -0.125605
    19  C   -0.319446
    20  C   -0.168942
    21  C   -0.400387
    22  C   -0.168947
    23  C   -0.400396
    24  H    0.226308
    25  H    0.178976
    26  H    0.173547
    27  H    0.174570
    28  H    0.188385
    29  H    0.178977
    30  H    0.173547
    31  H    0.174570
    32  H    0.188392
    33  H    0.167698
    34  H    0.172858
    35  H    0.149744
    36  H    0.150571
    37  H    0.152709
    38  H    0.167698
    39  H    0.172861
    40  H    0.149743
    41  H    0.150573
    42  H    0.152707
 Sum of Mulliken charges =   1.00000
 Mulliken charges with hydrogens summed into heavy atoms:
               1
     1  C    0.183241
     2  C   -0.195022
     3  C    0.183227
     4  N    0.037083
     5  S    0.056781
     6  C   -0.018481
     7  C    0.204295
     8  N    0.037076
     9  S    0.056782
    10  C   -0.018478
    11  C    0.204292
    12  C   -0.011846
    13  C    0.004288
    14  C    0.048969
    15  C   -0.131060
    16  C   -0.011841
    17  C    0.004290
    18  C    0.048965
    19  C   -0.131054
    20  C    0.171614
    21  C    0.052637
    22  C    0.171613
    23  C    0.052628
 Electronic spatial extent (au):  <R**2>=          10364.7453
 Charge=              1.0000 electrons
 Dipole moment (field-independent basis, Debye):
    X=              0.0001    Y=              5.2095    Z=              0.0001  Tot=              5.2095
 Quadrupole moment (field-independent basis, Debye-Ang):
   XX=            -67.3003   YY=           -107.9192   ZZ=           -153.4093
   XY=             -0.0003   XZ=              2.2743   YZ=             -0.0005
 Traceless Quadrupole moment (field-independent basis, Debye-Ang):
   XX=             42.2427   YY=              1.6237   ZZ=            -43.8664
   XY=             -0.0003   XZ=              2.2743   YZ=             -0.0005
 Octapole moment (field-independent basis, Debye-Ang**2):
  XXX=              0.0023  YYY=             22.2629  ZZZ=              0.0004  XYY=             -0.0003
  XXY=              0.4206  XXZ=              0.0025  XZZ=             -0.0001  YZZ=             14.6572
  YYZ=              0.0018  XYZ=              7.0663
 Hexadecapole moment (field-independent basis, Debye-Ang**3):
 XXXX=          -8457.4037 YYYY=          -2293.9256 ZZZZ=           -334.6298 XXXY=             -0.0067
 XXXZ=             80.3989 YYYX=             -0.0084 YYYZ=             -0.0035 ZZZX=            -10.1456
 ZZZY=              0.0014 XXYY=          -1808.6234 XXZZ=          -2117.6406 YYZZ=           -514.4591
 XXYZ=             -0.0143 YYXZ=              1.8773 ZZXY=              0.0002
 N-N= 2.127820802891D+03 E-N=-8.085889805230D+03  KE= 1.634949399524D+03
 Unable to Open any file for archive entry.
 1\1\GINC-CN07\SP\RwB97XD TD-FC\def2TZVP\C19H19N2S2(1+)\2100011873\03-N
 ov-2023\0\\# td=(nstates=150) wB97XD/def2TZVP scrf(smd, solvent=ethano
 l)\\A-1\\1,1\C,0,-1.259214,0.216698,-0.039367\C,0,0.000003,0.828935,-0
 .000122\C,0,1.259209,0.216684,0.039249\N,0,2.433464,0.904848,0.145998\
 S,0,-1.557561,-1.512152,0.053882\C,0,-3.297665,-1.258824,-0.027283\C,0
 ,-3.589904,0.108866,-0.118299\N,0,-2.433474,0.904863,-0.146106\S,0,1.5
 57549,-1.512171,-0.053923\C,0,3.297657,-1.25885,0.027304\C,0,3.5899,0.
 108842,0.118251\C,0,-4.301571,-2.224422,-0.003624\C,0,-5.624645,-1.792
 125,-0.066975\C,0,-5.925643,-0.425687,-0.149009\C,0,-4.920394,0.538274
 ,-0.174272\C,0,4.301563,-2.22445,0.003718\C,0,5.624635,-1.792149,0.067
 066\C,0,5.925635,-0.425707,0.149021\C,0,4.920384,0.538258,0.174213\C,0
 ,-2.510348,2.373529,-0.257226\C,0,-2.566433,3.073786,1.101522\C,0,2.51
 0339,2.373497,0.257299\C,0,2.566508,3.073929,-1.101357\H,0,0.000014,1.
 90904,-0.000214\H,0,-4.060576,-3.280313,0.063971\H,0,-6.427238,-2.5221
 32,-0.049094\H,0,-6.962056,-0.106514,-0.191342\H,0,-5.176748,1.590213,
 -0.22813\H,0,4.060566,-3.280345,-0.063815\H,0,6.42723,-2.522156,0.0492
 31\H,0,6.962048,-0.106532,0.191339\H,0,5.176733,1.590201,0.228019\H,0,
 -1.657488,2.708489,-0.852128\H,0,-3.398115,2.597174,-0.852215\H,0,-3.4
 41185,2.752064,1.674572\H,0,-1.673838,2.863356,1.699082\H,0,-2.63423,4
 .156364,0.954302\H,0,1.657436,2.708379,0.852183\H,0,3.398074,2.597059,
 0.85237\H,0,3.441334,2.752344,-1.674368\H,0,1.673988,2.86351,-1.699033
 \H,0,2.634214,4.156493,-0.95399\\Version=ES64L-G16RevC.02\State=1-A\HF
 =-1641.2840371\RMSD=5.060e-09\PG=C01 [X(C19H19N2S2)]\\@
 The archive entry for this job was punched.


 NOTHING MAKES A PERSON MORE PRODUCTIVE THAN THE LAST MINUTE.
 Job cpu time:       3 days  8 hours 42 minutes 21.2 seconds.
 Elapsed time:       0 days  2 hours 37 minutes  9.5 seconds.
 File lengths (MBytes):  RWF=  28896 Int=      0 D2E=      0 Chk=   2880 Scr=     32
 Normal termination of Gaussian 16 at Fri Nov  3 22:46:10 2023.
