 Entering Gaussian System, Link 0=g16
 Initial command:
 /nfs-share/home/2100011873/Gaussian16_AVX2/g16/l1.exe "/nfs-share/home/2100011873/GaussTmp/Gau-72119.inp" -scrdir="/nfs-share/home/2100011873/GaussTmp/"
 Entering Link 1 = /nfs-share/home/2100011873/Gaussian16_AVX2/g16/l1.exe PID=     72120.
  
 Copyright (c) 1988-2021, Gaussian, Inc.  All Rights Reserved.
  
 This is part of the Gaussian(R) 16 program.  It is based on
 the Gaussian(R) 09 system (copyright 2009, Gaussian, Inc.),
 the Gaussian(R) 03 system (copyright 2003, Gaussian, Inc.),
 the Gaussian(R) 98 system (copyright 1998, Gaussian, Inc.),
 the Gaussian(R) 94 system (copyright 1995, Gaussian, Inc.),
 the Gaussian 92(TM) system (copyright 1992, Gaussian, Inc.),
 the Gaussian 90(TM) system (copyright 1990, Gaussian, Inc.),
 the Gaussian 88(TM) system (copyright 1988, Gaussian, Inc.),
 the Gaussian 86(TM) system (copyright 1986, Carnegie Mellon
 University), and the Gaussian 82(TM) system (copyright 1983,
 Carnegie Mellon University). Gaussian is a federally registered
 trademark of Gaussian, Inc.
  
 This software contains proprietary and confidential information,
 including trade secrets, belonging to Gaussian, Inc.
  
 This software is provided under written license and may be
 used, copied, transmitted, or stored only in accord with that
 written license.
  
 The following legend is applicable only to US Government
 contracts under FAR:
  
                    RESTRICTED RIGHTS LEGEND
  
 Use, reproduction and disclosure by the US Government is
 subject to restrictions as set forth in subparagraphs (a)
 and (c) of the Commercial Computer Software - Restricted
 Rights clause in FAR 52.227-19.
  
 Gaussian, Inc.
 340 Quinnipiac St., Bldg. 40, Wallingford CT 06492
  
  
 ---------------------------------------------------------------
 Warning -- This program may not be used in any manner that
 competes with the business of Gaussian, Inc. or will provide
 assistance to any competitor of Gaussian, Inc.  The licensee
 of this program is prohibited from giving any competitor of
 Gaussian, Inc. access to this program.  By using this program,
 the user acknowledges that Gaussian, Inc. is engaged in the
 business of creating and licensing software in the field of
 computational chemistry and represents and warrants to the
 licensee that it is not a competitor of Gaussian, Inc. and that
 it will not use this program in any manner prohibited above.
 ---------------------------------------------------------------
  

 Cite this work as:
 Gaussian 16, Revision C.02,
 M. J. Frisch, G. W. Trucks, H. B. Schlegel, G. E. Scuseria, 
 M. A. Robb, J. R. Cheeseman, G. Scalmani, V. Barone, 
 G. A. Petersson, H. Nakatsuji, X. Li, M. Caricato, A. V. Marenich, 
 J. Bloino, B. G. Janesko, R. Gomperts, B. Mennucci, H. P. Hratchian, 
 J. V. Ortiz, A. F. Izmaylov, J. L. Sonnenberg, D. Williams-Young, 
 F. Ding, F. Lipparini, F. Egidi, J. Goings, B. Peng, A. Petrone, 
 T. Henderson, D. Ranasinghe, V. G. Zakrzewski, J. Gao, N. Rega, 
 G. Zheng, W. Liang, M. Hada, M. Ehara, K. Toyota, R. Fukuda, 
 J. Hasegawa, M. Ishida, T. Nakajima, Y. Honda, O. Kitao, H. Nakai, 
 T. Vreven, K. Throssell, J. A. Montgomery, Jr., J. E. Peralta, 
 F. Ogliaro, M. J. Bearpark, J. J. Heyd, E. N. Brothers, K. N. Kudin, 
 V. N. Staroverov, T. A. Keith, R. Kobayashi, J. Normand, 
 K. Raghavachari, A. P. Rendell, J. C. Burant, S. S. Iyengar, 
 J. Tomasi, M. Cossi, J. M. Millam, M. Klene, C. Adamo, R. Cammi, 
 J. W. Ochterski, R. L. Martin, K. Morokuma, O. Farkas, 
 J. B. Foresman, and D. J. Fox, Gaussian, Inc., Wallingford CT, 2019.
 
 ******************************************
 Gaussian 16:  ES64L-G16RevC.02  7-Dec-2021
                 6-Nov-2023 
 ******************************************
 %nprocshared=36
 Will use up to   36 processors via shared memory.
 %mem=128GB
 -------------------------------------------------------------
 # td=(nstates=150) wB97XD/def2TZVP scrf(smd, solvent=ethanol)
 -------------------------------------------------------------
 1/38=1,172=1/1;
 2/12=2,17=6,18=5,40=1/2;
 3/5=44,7=101,11=9,25=1,30=1,70=32201,72=4,74=-58/1,2,3,8;
 4//1;
 5/5=2,38=5,53=4/2;
 8/6=1,10=1,108=150/1;
 9/41=150,42=1,70=2/14;
 6/7=2,8=2,9=2,10=2/1;
 99/5=1,9=1/99;
 ---
 B-1
 ---
 Symbolic Z-matrix:
 Charge =  0 Multiplicity = 1
 C                    -13.19325  -1.96518   0.35751 
 C                    -14.15023  -1.3663   -0.66684 
 C                    -14.19793   0.14589  -0.46999 
 C                    -12.83989   0.78112  -0.26594 
 C                    -11.69919   0.06912  -0.02054 
 C                    -11.73425  -1.46329   0.19794 
 C                    -10.43464   0.80864   0.02792 
 C                    -9.1477    0.36849   0.05193 
 C                    -7.97098   1.21881   0.06402 
 C                    -6.73848   0.61877   0.06999 
 C                    -5.44585   1.23802   0.07821 
 C                    -4.28033   0.52598   0.08121 
 C                    -2.9426    1.06363   0.08601 
 C                    -1.88552   0.18504   0.0869 
 C                    -0.48836   0.47987   0.08838 
 C                     0.48836  -0.47988   0.08838 
 C                     1.88552  -0.18505   0.0869 
 C                     2.9426   -1.06364   0.08601 
 C                     4.28033  -0.52598   0.08121 
 C                     5.44585  -1.23802   0.07821 
 C                     6.73848  -0.61878   0.06999 
 C                     7.97098  -1.21882   0.06402 
 C                     9.1477   -0.36849   0.05193 
 C                     10.43464  -0.80864   0.02791 
 C                     11.69919  -0.06911  -0.02054 
 C                     11.73425   1.4633    0.19794 
 C                    -11.0146  -1.85387   1.51323 
 C                    -11.08758  -2.20926  -0.99638 
 C                    -12.87893   2.29364  -0.39889 
 C                     13.19324   1.96519   0.35753 
 C                     14.15024   1.36631  -0.66682 
 C                     14.19793  -0.14588  -0.46997 
 C                     12.83989  -0.78111  -0.26594 
 C                     11.01458   1.85387   1.51322 
 C                     11.08758   2.20926  -0.99639 
 C                     12.87893  -2.29364  -0.39888 
 C                     8.15656  -2.71718   0.0685 
 C                     2.76951  -2.56424   0.08879 
 C                    -2.7695    2.56423   0.08879 
 C                    -8.15656   2.71718   0.0685 
 H                    -13.55224  -1.70444   1.36372 
 H                    -13.19179  -3.06159   0.30296 
 H                    -15.15315  -1.79827  -0.56305 
 H                    -13.81309  -1.59776  -1.68519 
 H                    -14.83673   0.39264   0.39555 
 H                    -14.68517   0.6313   -1.32865 
 H                    -10.55321   1.88625  -0.00013 
 H                    -8.93157  -0.69442   0.04825 
 H                    -6.72719  -0.47229   0.0666 
 H                    -5.39419   2.32333   0.08055 
 H                    -4.35407  -0.56241   0.07851 
 H                    -2.13643  -0.87673   0.08526 
 H                    -0.17247   1.5217    0.08852 
 H                     0.17247  -1.52171   0.08852 
 H                     2.13644   0.87672   0.08527 
 H                     4.35407   0.5624    0.07851 
 H                     5.39419  -2.32334   0.08054 
 H                     6.72719   0.47229   0.06659 
 H                     8.93157   0.69442   0.04824 
 H                     10.55321  -1.88625  -0.00012 
 H                    -11.41656  -1.28058   2.35641 
 H                    -11.18397  -2.91813   1.72001 
 H                    -9.93616  -1.69087   1.48859 
 H                    -10.06227  -1.88498  -1.18781 
 H                    -11.06723  -3.28878  -0.80027 
 H                    -11.65314  -2.04558  -1.91992 
 H                    -13.91376   2.64896  -0.35064 
 H                    -12.32451   2.80958   0.39214 
 H                    -12.46878   2.63324  -1.36008 
 H                     13.19178   3.06159   0.30298 
 H                     13.55222   1.70445   1.36374 
 H                     15.15315   1.79828  -0.56302 
 H                     13.8131   1.59777  -1.68517 
 H                     14.83673  -0.39263   0.39557 
 H                     14.68518  -0.63129  -1.32863 
 H                     11.18393   2.91814   1.72 
 H                     9.93614   1.69087   1.48856 
 H                     11.41653   1.28059   2.3564 
 H                     10.06228   1.88498  -1.18783 
 H                     11.06723   3.28878  -0.80029 
 H                     11.65315   2.04558  -1.91993 
 H                     13.91377  -2.64895  -0.35064 
 H                     12.32452  -2.80958   0.39214 
 H                     12.46878  -2.63323  -1.36007 
 H                     8.74409  -3.03646   0.93873 
 H                     7.20915  -3.25795   0.09305 
 H                     8.70422  -3.04723  -0.82368 
 H                     3.24804  -3.01107   0.96953 
 H                     1.72147  -2.86803   0.09271 
 H                     3.24239  -3.01383  -0.79361 
 H                    -3.2424    3.01383  -0.7936 
 H                    -3.24802   3.01106   0.96955 
 H                    -1.72147   2.86802   0.09269 
 H                    -7.20914   3.25794   0.09306 
 H                    -8.70421   3.04723  -0.82368 
 H                    -8.74409   3.03646   0.93873 
 
 Stoichiometry    C40H56
 Framework group  C1[X(C40H56)]
 Deg. of freedom   282
 Full point group                 C1      NOp   1
 Largest Abelian subgroup         C1      NOp   1
 Largest concise Abelian subgroup C1      NOp   1
                         Standard orientation:                         
 ---------------------------------------------------------------------
 Center     Atomic      Atomic             Coordinates (Angstroms)
 Number     Number       Type             X           Y           Z
 ---------------------------------------------------------------------
      1          6           0       13.193247    1.965180    0.357514
      2          6           0       14.150234    1.366297   -0.666837
      3          6           0       14.197930   -0.145886   -0.469985
      4          6           0       12.839886   -0.781119   -0.265942
      5          6           0       11.699193   -0.069117   -0.020535
      6          6           0       11.734254    1.463294    0.197940
      7          6           0       10.434640   -0.808638    0.027915
      8          6           0        9.147698   -0.368486    0.051934
      9          6           0        7.970978   -1.218813    0.064023
     10          6           0        6.738479   -0.618773    0.069992
     11          6           0        5.445845   -1.238015    0.078209
     12          6           0        4.280328   -0.525977    0.081210
     13          6           0        2.942601   -1.063627    0.086009
     14          6           0        1.885522   -0.185039    0.086900
     15          6           0        0.488362   -0.479870    0.088382
     16          6           0       -0.488364    0.479879    0.088381
     17          6           0       -1.885523    0.185049    0.086901
     18          6           0       -2.942603    1.063636    0.086010
     19          6           0       -4.280330    0.525984    0.081210
     20          6           0       -5.445847    1.238022    0.078205
     21          6           0       -6.738480    0.618778    0.069986
     22          6           0       -7.970980    1.218816    0.064016
     23          6           0       -9.147699    0.368486    0.051926
     24          6           0      -10.434641    0.808636    0.027911
     25          6           0      -11.699193    0.069112   -0.020539
     26          6           0      -11.734248   -1.463299    0.197935
     27          6           0       11.014600    1.853868    1.513234
     28          6           0       11.087577    2.209256   -0.996377
     29          6           0       12.878927   -2.293643   -0.398885
     30          6           0      -13.193238   -1.965187    0.357525
     31          6           0      -14.150237   -1.366308   -0.666817
     32          6           0      -14.197934    0.145875   -0.469969
     33          6           0      -12.839889    0.781111   -0.265939
     34          6           0      -11.014576   -1.853870    1.513220
     35          6           0      -11.087582   -2.209257   -0.996389
     36          6           0      -12.878932    2.293635   -0.398883
     37          6           0       -8.156563    2.717180    0.068498
     38          6           0       -2.769507    2.564242    0.088788
     39          6           0        2.769504   -2.564233    0.088790
     40          6           0        8.156557   -2.717177    0.068503
     41          1           0       13.552240    1.704444    1.363722
     42          1           0       13.191791    3.061587    0.302962
     43          1           0       15.153148    1.798268   -0.563053
     44          1           0       13.813091    1.597755   -1.685187
     45          1           0       14.836732   -0.392637    0.395545
     46          1           0       14.685170   -0.631298   -1.328645
     47          1           0       10.553209   -1.886254   -0.000126
     48          1           0        8.931571    0.694424    0.048253
     49          1           0        6.727188    0.472294    0.066595
     50          1           0        5.394190   -2.323329    0.080545
     51          1           0        4.354073    0.562407    0.078511
     52          1           0        2.136434    0.876729    0.085263
     53          1           0        0.172471   -1.521700    0.088524
     54          1           0       -0.172472    1.521709    0.088521
     55          1           0       -2.136435   -0.876720    0.085267
     56          1           0       -4.354074   -0.562400    0.078514
     57          1           0       -5.394193    2.323335    0.080538
     58          1           0       -6.727188   -0.472289    0.066588
     59          1           0       -8.931568   -0.694423    0.048240
     60          1           0      -10.553213    1.886252   -0.000123
     61          1           0       11.416560    1.280584    2.356412
     62          1           0       11.183965    2.918133    1.720013
     63          1           0        9.936160    1.690871    1.488587
     64          1           0       10.062275    1.884980   -1.187807
     65          1           0       11.067226    3.288779   -0.800274
     66          1           0       11.653135    2.045583   -1.919919
     67          1           0       13.913764   -2.648960   -0.350635
     68          1           0       12.324510   -2.809583    0.392139
     69          1           0       12.468777   -2.633235   -1.360075
     70          1           0      -13.191780   -3.061594    0.302976
     71          1           0      -13.552222   -1.704450    1.363737
     72          1           0      -15.153149   -1.798281   -0.563022
     73          1           0      -13.813104   -1.597768   -1.685170
     74          1           0      -14.836727    0.392627    0.395567
     75          1           0      -14.685183    0.631285   -1.328625
     76          1           0      -11.183932   -2.918136    1.719999
     77          1           0       -9.936137   -1.690867    1.488558
     78          1           0      -11.416527   -1.280589    2.356403
     79          1           0      -10.062283   -1.884978   -1.187830
     80          1           0      -11.067226   -3.288781   -0.800288
     81          1           0      -11.653150   -2.045585   -1.919926
     82          1           0      -13.913771    2.648951   -0.350639
     83          1           0      -12.324521    2.809577    0.392144
     84          1           0      -12.468777    2.633229   -1.360071
     85          1           0       -8.744087    3.036457    0.938730
     86          1           0       -7.209146    3.257946    0.093047
     87          1           0       -8.704221    3.047232   -0.823677
     88          1           0       -3.248036    3.011075    0.969534
     89          1           0       -1.721470    2.868026    0.092705
     90          1           0       -3.242385    3.013831   -0.793611
     91          1           0        3.242396   -3.013825   -0.793600
     92          1           0        3.248019   -3.011063    0.969546
     93          1           0        1.721466   -2.868016    0.092692
     94          1           0        7.209140   -3.257941    0.093061
     95          1           0        8.704208   -3.047230   -0.823677
     96          1           0        8.744089   -3.036455    0.938730
 ---------------------------------------------------------------------
 Rotational constants (GHZ):           0.3478418           0.0099525           0.0097368
 Standard basis: def2TZVP (5D, 7F)
 There are  1776 symmetry adapted cartesian basis functions of A   symmetry.
 There are  1576 symmetry adapted basis functions of A   symmetry.
  1576 basis functions,  2488 primitive gaussians,  1776 cartesian basis functions
   148 alpha electrons      148 beta electrons
       nuclear repulsion energy      3637.1617565307 Hartrees.
 NAtoms=   96 NActive=   96 NUniq=   96 SFac= 1.00D+00 NAtFMM=   60 NAOKFM=T Big=T
 Integral buffers will be    131072 words long.
 Raffenetti 1 integral format.
 Two-electron integral symmetry is turned on.
 Nuclear repulsion after empirical dispersion term =     3637.0820708615 Hartrees.
 ------------------------------------------------------------------------------
 Polarizable Continuum Model (PCM)
 =================================
 Model                : PCM.
 Atomic radii         : SMD-Coulomb.
 Polarization charges : Total charges.
 Charge compensation  : None.
 Solution method      : On-the-fly selection.
 Cavity type          : VdW (van der Waals Surface) (Alpha=1.000).
 Cavity algorithm     : GePol (No added spheres)
                        Default sphere list used, NSphG=   96.
                        Lebedev-Laikov grids with approx.  5.0 points / Ang**2.
                        Smoothing algorithm: York/Karplus (Gamma=1.0000).
                        Polarization charges: spherical gaussians, with
                                              point-specific exponents (IZeta= 3).
                        Self-potential: point-specific (ISelfS= 7).
                        Self-field    : sphere-specific E.n sum rule (ISelfD= 2).
 Solvent              : Ethanol, Eps=  24.852000 Eps(inf)=   1.852593
 ------------------------------------------------------------------------------
 ------------------------------------------------------------------------------
 Atomic radii for non-electrostatic terms: SMD-CDS.
 ------------------------------------------------------------------------------
 Nuclear repulsion after PCM non-electrostatic terms =     3637.0725020452 Hartrees.
 One-electron integrals computed using PRISM.
   1 Symmetry operations used in ECPInt.
 ECPInt:  NShTT=  220780 NPrTT=  646864 LenC2=  101855 LenP2D=  205935.
 LDataN:  DoStor=T MaxTD1= 6 Len=  172
 NBasis=  1576 RedAO= T EigKep=  1.02D-05  NBF=  1576
 NBsUse=  1576 1.00D-06 EigRej= -1.00D+00 NBFU=  1576
 ExpMin= 9.52D-02 ExpMax= 1.36D+04 ExpMxC= 4.63D+02 IAcc=3 IRadAn=         5 AccDes= 0.00D+00
 Harris functional with IExCor= 4639 and IRadAn=       5 diagonalized for initial guess.
 HarFok:  IExCor= 4639 AccDes= 0.00D+00 IRadAn=         5 IDoV= 1 UseB2=F ITyADJ=14
 ICtDFT=  3500011 ScaDFX=  1.000000  1.000000  1.000000  1.000000
 FoFCou: FMM=F IPFlag=           0 FMFlag=      100000 FMFlg1=        2001
         NFxFlg=           0 DoJE=T BraDBF=F KetDBF=T FulRan=T
         wScrn=  0.000000 ICntrl=       500 IOpCl=  0 I1Cent=   200000004 NGrid=           0
         NMat0=    1 NMatS0=      1 NMatT0=    0 NMatD0=    1 NMtDS0=    0 NMtDT0=    0
 Petite list used in FoFCou.
 Requested convergence on RMS density matrix=1.00D-08 within 128 cycles.
 Requested convergence on MAX density matrix=1.00D-06.
 Requested convergence on             energy=1.00D-06.
 No special actions if energy rises.
 Inv3:  Mode=1 IEnd=   125194800.
 Iteration    1 A*A^-1 deviation from unit magnitude is 3.22D-15 for   4730.
 Iteration    1 A*A^-1 deviation from orthogonality  is 2.89D-15 for   6334   1968.
 Iteration    1 A^-1*A deviation from unit magnitude is 3.00D-15 for   4730.
 Iteration    1 A^-1*A deviation from orthogonality  is 4.45D-15 for   4759   1478.
 Error on total polarization charges =  0.11607
 SCF Done:  E(RwB97XD) =  -1557.96510940     A.U. after   13 cycles
            NFock= 13  Conv=0.96D-08     -V/T= 2.0061
 SMD-CDS (non-electrostatic) energy       (kcal/mol) =      -6.00
 (included in total energy above)
 DoSCS=F DFT=T ScalE2(SS,OS)=  1.000000  1.000000
 ExpMin= 9.52D-02 ExpMax= 1.36D+04 ExpMxC= 4.63D+02 IAcc=3 IRadAn=         5 AccDes= 0.00D+00
 HarFok:  IExCor=  205 AccDes= 0.00D+00 IRadAn=         5 IDoV=-2 UseB2=F ITyADJ=14
 ICtDFT= 12500011 ScaDFX=  1.000000  1.000000  1.000000  1.000000
 GSVD:  LWork=       -1920 too small for GESVD, short by        8600 words or        8600 for optimal perf.
 Range of M.O.s used for correlation:    41  1576
 NBasis=  1576 NAE=   148 NBE=   148 NFC=    40 NFV=     0
 NROrb=   1536 NOA=   108 NOB=   108 NVA=  1428 NVB=  1428

 **** Warning!!: The largest alpha MO coefficient is  0.29173336D+02

 NEqPCM:  Using non-equilibrium solvation (IEInf=1, Eps=  24.8520, EpsInf=   1.8526)
 Inv3:  Mode=1 IEnd=   125194800.
 Iteration    1 A*A^-1 deviation from unit magnitude is 3.89D-15 for    356.
 Iteration    1 A*A^-1 deviation from orthogonality  is 2.11D-15 for   4777   1517.
 Iteration    1 A^-1*A deviation from unit magnitude is 3.66D-15 for    356.
 Iteration    1 A^-1*A deviation from orthogonality  is 2.00D-15 for   6401   1874.
 Orbital symmetries:
       Occupied  (A) (A) (A) (A) (A) (A) (A) (A) (A) (A) (A) (A)
                 (A) (A) (A) (A) (A) (A) (A) (A) (A) (A) (A) (A)
                 (A) (A) (A) (A) (A) (A) (A) (A) (A) (A) (A) (A)
                 (A) (A) (A) (A) (A) (A) (A) (A) (A) (A) (A) (A)
                 (A) (A) (A) (A) (A) (A) (A) (A) (A) (A) (A) (A)
                 (A) (A) (A) (A) (A) (A) (A) (A) (A) (A) (A) (A)
                 (A) (A) (A) (A) (A) (A) (A) (A) (A) (A) (A) (A)
                 (A) (A) (A) (A) (A) (A) (A) (A) (A) (A) (A) (A)
                 (A) (A) (A) (A) (A) (A) (A) (A) (A) (A) (A) (A)
                 (A) (A) (A) (A) (A) (A) (A) (A) (A) (A) (A) (A)
                 (A) (A) (A) (A) (A) (A) (A) (A) (A) (A) (A) (A)
                 (A) (A) (A) (A) (A) (A) (A) (A) (A) (A) (A) (A)
                 (A) (A) (A) (A)
       Virtual   (A) (A) (A) (A) (A) (A) (A) (A) (A) (A) (A) (A)
                 (A) (A) (A) (A) (A) (A) (A) (A) (A) (A) (A) (A)
                 (A) (A) (A) (A) (A) (A) (A) (A) (A) (A) (A) (A)
                 (A) (A) (A) (A) (A) (A) (A) (A) (A) (A) (A) (A)
                 (A) (A) (A) (A) (A) (A) (A) (A) (A) (A) (A) (A)
                 (A) (A) (A) (A) (A) (A) (A) (A) (A) (A) (A) (A)
                 (A) (A) (A) (A) (A) (A) (A) (A) (A) (A) (A) (A)
                 (A) (A) (A) (A) (A) (A) (A) (A) (A) (A) (A) (A)
                 (A) (A) (A) (A) (A) (A) (A) (A) (A) (A) (A) (A)
                 (A) (A) (A) (A) (A) (A) (A) (A) (A) (A) (A) (A)
                 (A) (A) (A) (A) (A) (A) (A) (A) (A) (A) (A) (A)
                 (A) (A) (A) (A) (A) (A) (A) (A) (A) (A) (A) (A)
                 (A) (A) (A) (A) (A) (A) (A) (A) (A) (A) (A) (A)
                 (A) (A) (A) (A) (A) (A) (A) (A) (A) (A) (A) (A)
                 (A) (A) (A) (A) (A) (A) (A) (A) (A) (A) (A) (A)
                 (A) (A) (A) (A) (A) (A) (A) (A) (A) (A) (A) (A)
                 (A) (A) (A) (A) (A) (A) (A) (A) (A) (A) (A) (A)
                 (A) (A) (A) (A) (A) (A) (A) (A) (A) (A) (A) (A)
                 (A) (A) (A) (A) (A) (A) (A) (A) (A) (A) (A) (A)
                 (A) (A) (A) (A) (A) (A) (A) (A) (A) (A) (A) (A)
                 (A) (A) (A) (A) (A) (A) (A) (A) (A) (A) (A) (A)
                 (A) (A) (A) (A) (A) (A) (A) (A) (A) (A) (A) (A)
                 (A) (A) (A) (A) (A) (A) (A) (A) (A) (A) (A) (A)
                 (A) (A) (A) (A) (A) (A) (A) (A) (A) (A) (A) (A)
                 (A) (A) (A) (A) (A) (A) (A) (A) (A) (A) (A) (A)
                 (A) (A) (A) (A) (A) (A) (A) (A) (A) (A) (A) (A)
                 (A) (A) (A) (A) (A) (A) (A) (A) (A) (A) (A) (A)
                 (A) (A) (A) (A) (A) (A) (A) (A) (A) (A) (A) (A)
                 (A) (A) (A) (A) (A) (A) (A) (A) (A) (A) (A) (A)
                 (A) (A) (A) (A) (A) (A) (A) (A) (A) (A) (A) (A)
                 (A) (A) (A) (A) (A) (A) (A) (A) (A) (A) (A) (A)
                 (A) (A) (A) (A) (A) (A) (A) (A) (A) (A) (A) (A)
                 (A) (A) (A) (A) (A) (A) (A) (A) (A) (A) (A) (A)
                 (A) (A) (A) (A) (A) (A) (A) (A) (A) (A) (A) (A)
                 (A) (A) (A) (A) (A) (A) (A) (A) (A) (A) (A) (A)
                 (A) (A) (A) (A) (A) (A) (A) (A) (A) (A) (A) (A)
                 (A) (A) (A) (A) (A) (A) (A) (A) (A) (A) (A) (A)
                 (A) (A) (A) (A) (A) (A) (A) (A) (A) (A) (A) (A)
                 (A) (A) (A) (A) (A) (A) (A) (A) (A) (A) (A) (A)
                 (A) (A) (A) (A) (A) (A) (A) (A) (A) (A) (A) (A)
                 (A) (A) (A) (A) (A) (A) (A) (A) (A) (A) (A) (A)
                 (A) (A) (A) (A) (A) (A) (A) (A) (A) (A) (A) (A)
                 (A) (A) (A) (A) (A) (A) (A) (A) (A) (A) (A) (A)
                 (A) (A) (A) (A) (A) (A) (A) (A) (A) (A) (A) (A)
                 (A) (A) (A) (A) (A) (A) (A) (A) (A) (A) (A) (A)
                 (A) (A) (A) (A) (A) (A) (A) (A) (A) (A) (A) (A)
                 (A) (A) (A) (A) (A) (A) (A) (A) (A) (A) (A) (A)
                 (A) (A) (A) (A) (A) (A) (A) (A) (A) (A) (A) (A)
                 (A) (A) (A) (A) (A) (A) (A) (A) (A) (A) (A) (A)
                 (A) (A) (A) (A) (A) (A) (A) (A) (A) (A) (A) (A)
                 (A) (A) (A) (A) (A) (A) (A) (A) (A) (A) (A) (A)
                 (A) (A) (A) (A) (A) (A) (A) (A) (A) (A) (A) (A)
                 (A) (A) (A) (A) (A) (A) (A) (A) (A) (A) (A) (A)
                 (A) (A) (A) (A) (A) (A) (A) (A) (A) (A) (A) (A)
                 (A) (A) (A) (A) (A) (A) (A) (A) (A) (A) (A) (A)
                 (A) (A) (A) (A) (A) (A) (A) (A) (A) (A) (A) (A)
                 (A) (A) (A) (A) (A) (A) (A) (A) (A) (A) (A) (A)
                 (A) (A) (A) (A) (A) (A) (A) (A) (A) (A) (A) (A)
                 (A) (A) (A) (A) (A) (A) (A) (A) (A) (A) (A) (A)
                 (A) (A) (A) (A) (A) (A) (A) (A) (A) (A) (A) (A)
                 (A) (A) (A) (A) (A) (A) (A) (A) (A) (A) (A) (A)
                 (A) (A) (A) (A) (A) (A) (A) (A) (A) (A) (A) (A)
                 (A) (A) (A) (A) (A) (A) (A) (A) (A) (A) (A) (A)
                 (A) (A) (A) (A) (A) (A) (A) (A) (A) (A) (A) (A)
                 (A) (A) (A) (A) (A) (A) (A) (A) (A) (A) (A) (A)
                 (A) (A) (A) (A) (A) (A) (A) (A) (A) (A) (A) (A)
                 (A) (A) (A) (A) (A) (A) (A) (A) (A) (A) (A) (A)
                 (A) (A) (A) (A) (A) (A) (A) (A) (A) (A) (A) (A)
                 (A) (A) (A) (A) (A) (A) (A) (A) (A) (A) (A) (A)
                 (A) (A) (A) (A) (A) (A) (A) (A) (A) (A) (A) (A)
                 (A) (A) (A) (A) (A) (A) (A) (A) (A) (A) (A) (A)
                 (A) (A) (A) (A) (A) (A) (A) (A) (A) (A) (A) (A)
                 (A) (A) (A) (A) (A) (A) (A) (A) (A) (A) (A) (A)
                 (A) (A) (A) (A) (A) (A) (A) (A) (A) (A) (A) (A)
                 (A) (A) (A) (A) (A) (A) (A) (A) (A) (A) (A) (A)
                 (A) (A) (A) (A) (A) (A) (A) (A) (A) (A) (A) (A)
                 (A) (A) (A) (A) (A) (A) (A) (A) (A) (A) (A) (A)
                 (A) (A) (A) (A) (A) (A) (A) (A) (A) (A) (A) (A)
                 (A) (A) (A) (A) (A) (A) (A) (A) (A) (A) (A) (A)
                 (A) (A) (A) (A) (A) (A) (A) (A) (A) (A) (A) (A)
                 (A) (A) (A) (A) (A) (A) (A) (A) (A) (A) (A) (A)
                 (A) (A) (A) (A) (A) (A) (A) (A) (A) (A) (A) (A)
                 (A) (A) (A) (A) (A) (A) (A) (A) (A) (A) (A) (A)
                 (A) (A) (A) (A) (A) (A) (A) (A) (A) (A) (A) (A)
                 (A) (A) (A) (A) (A) (A) (A) (A) (A) (A) (A) (A)
                 (A) (A) (A) (A) (A) (A) (A) (A) (A) (A) (A) (A)
                 (A) (A) (A) (A) (A) (A) (A) (A) (A) (A) (A) (A)
                 (A) (A) (A) (A) (A) (A) (A) (A) (A) (A) (A) (A)
                 (A) (A) (A) (A) (A) (A) (A) (A) (A) (A) (A) (A)
                 (A) (A) (A) (A) (A) (A) (A) (A) (A) (A) (A) (A)
                 (A) (A) (A) (A) (A) (A) (A) (A) (A) (A) (A) (A)
                 (A) (A) (A) (A) (A) (A) (A) (A) (A) (A) (A) (A)
                 (A) (A) (A) (A) (A) (A) (A) (A) (A) (A) (A) (A)
                 (A) (A) (A) (A) (A) (A) (A) (A) (A) (A) (A) (A)
                 (A) (A) (A) (A) (A) (A) (A) (A) (A) (A) (A) (A)
                 (A) (A) (A) (A) (A) (A) (A) (A) (A) (A) (A) (A)
                 (A) (A) (A) (A) (A) (A) (A) (A) (A) (A) (A) (A)
                 (A) (A) (A) (A) (A) (A) (A) (A) (A) (A) (A) (A)
                 (A) (A) (A) (A) (A) (A) (A) (A) (A) (A) (A) (A)
                 (A) (A) (A) (A) (A) (A) (A) (A) (A) (A) (A) (A)
                 (A) (A) (A) (A) (A) (A) (A) (A) (A) (A) (A) (A)
                 (A) (A) (A) (A) (A) (A) (A) (A) (A) (A) (A) (A)
                 (A) (A) (A) (A) (A) (A) (A) (A) (A) (A) (A) (A)
                 (A) (A) (A) (A) (A) (A) (A) (A) (A) (A) (A) (A)
                 (A) (A) (A) (A) (A) (A) (A) (A) (A) (A) (A) (A)
                 (A) (A) (A) (A) (A) (A) (A) (A) (A) (A) (A) (A)
                 (A) (A) (A) (A) (A) (A) (A) (A) (A) (A) (A) (A)
                 (A) (A) (A) (A) (A) (A) (A) (A) (A) (A) (A) (A)
                 (A) (A) (A) (A) (A) (A) (A) (A) (A) (A) (A) (A)
                 (A) (A) (A) (A) (A) (A) (A) (A) (A) (A) (A) (A)
                 (A) (A) (A) (A) (A) (A) (A) (A) (A) (A) (A) (A)
                 (A) (A) (A) (A) (A) (A) (A) (A) (A) (A) (A) (A)
                 (A) (A) (A) (A) (A) (A) (A) (A) (A) (A) (A) (A)
                 (A) (A) (A) (A) (A) (A) (A) (A) (A) (A) (A) (A)
                 (A) (A) (A) (A) (A) (A) (A) (A) (A) (A) (A) (A)
                 (A) (A) (A) (A) (A) (A) (A) (A) (A) (A) (A) (A)
                 (A) (A) (A) (A) (A) (A) (A) (A) (A) (A) (A) (A)
                 (A) (A) (A) (A) (A) (A) (A) (A) (A) (A) (A) (A)
                 (A) (A) (A) (A) (A) (A) (A) (A) (A) (A) (A) (A)
   600 initial guesses have been made.
 Convergence on wavefunction:    0.001000000000000
 Iteration     1 Dimension   600 NMult     0 NNew    600
 CISAX will form    72 AO SS matrices at one time.
 New state      5 was old state      6
 New state      6 was old state      7
 New state      7 was old state      5
 New state      8 was old state     10
 New state      9 was old state     11
 New state     10 was old state      8
 New state     11 was old state     16
 New state     12 was old state     42
 New state     13 was old state     17
 New state     14 was old state     20
 New state     15 was old state     19
 New state     16 was old state     40
 New state     17 was old state      9
 New state     18 was old state     26
 New state     19 was old state     53
 New state     20 was old state     58
 New state     21 was old state     38
 New state     22 was old state     47
 New state     23 was old state     37
 New state     24 was old state     28
 New state     25 was old state     12
 New state     26 was old state     54
 New state     27 was old state     22
 New state     28 was old state     35
 New state     29 was old state     32
 New state     30 was old state     46
 New state     31 was old state     57
 New state     32 was old state     23
 New state     33 was old state     24
 New state     34 was old state     82
 New state     35 was old state     56
 New state     36 was old state     15
 New state     37 was old state     80
 New state     38 was old state     14
 New state     39 was old state     27
 New state     40 was old state     52
 New state     41 was old state     98
 New state     42 was old state     88
 New state     43 was old state    102
 New state     44 was old state     18
 New state     45 was old state     77
 New state     46 was old state     31
 New state     47 was old state     87
 New state     48 was old state    100
 New state     49 was old state     33
 New state     50 was old state     48
 New state     51 was old state     34
 New state     52 was old state     39
 New state     53 was old state    135
 New state     54 was old state     49
 New state     55 was old state     60
 New state     56 was old state    121
 New state     57 was old state    108
 New state     58 was old state    128
 New state     59 was old state     97
 New state     60 was old state    115
 New state     61 was old state    186
 New state     62 was old state     29
 New state     63 was old state     84
 New state     64 was old state     95
 New state     65 was old state    111
 New state     66 was old state     81
 New state     67 was old state     64
 New state     68 was old state     65
 New state     69 was old state     85
 New state     70 was old state     66
 New state     71 was old state     63
 New state     72 was old state    114
 New state     73 was old state     67
 New state     74 was old state     86
 New state     75 was old state    104
 New state     76 was old state    155
 New state     77 was old state     30
 New state     78 was old state     71
 New state     79 was old state    113
 New state     80 was old state    207
 New state     81 was old state     76
 New state     82 was old state    107
 New state     83 was old state     75
 New state     84 was old state    158
 New state     85 was old state    105
 New state     86 was old state    185
 New state     87 was old state     83
 New state     88 was old state    141
 New state     89 was old state    137
 New state     90 was old state    125
 New state     92 was old state     59
 New state     93 was old state    171
 New state     94 was old state     96
 New state     95 was old state     73
 New state     96 was old state    176
 New state     97 was old state    131
 New state     98 was old state    103
 New state     99 was old state    139
 New state    100 was old state    216
 New state    101 was old state     94
 New state    102 was old state    191
 New state    103 was old state    196
 New state    104 was old state    187
 New state    105 was old state    174
 New state    106 was old state    127
 New state    107 was old state     45
 New state    108 was old state    134
 New state    109 was old state    166
 New state    110 was old state     44
 New state    111 was old state    138
 New state    112 was old state    153
 New state    113 was old state    109
 New state    114 was old state    112
 New state    115 was old state    156
 New state    116 was old state     41
 New state    117 was old state    145
 New state    118 was old state    167
 New state    119 was old state    170
 New state    120 was old state    184
 New state    121 was old state     43
 New state    122 was old state    222
 New state    123 was old state    148
 New state    124 was old state    142
 New state    125 was old state    183
 New state    126 was old state    144
 New state    127 was old state     68
 New state    128 was old state    257
 New state    129 was old state    136
 New state    130 was old state    120
 New state    131 was old state    119
 New state    132 was old state    169
 New state    133 was old state    172
 New state    134 was old state    192
 New state    135 was old state    181
 New state    136 was old state    126
 New state    137 was old state    157
 New state    138 was old state    238
 New state    139 was old state    190
 New state    140 was old state    177
 New state    141 was old state     78
 New state    142 was old state    321
 New state    143 was old state    320
 New state    144 was old state    322
 New state    145 was old state     51
 New state    146 was old state    168
 New state    147 was old state    303
 New state    148 was old state    182
 New state    149 was old state     74
 New state    150 was old state    256
 Iteration     2 Dimension   900 NMult   600 NNew    300
 New state      7 was old state      8
 New state      8 was old state      9
 New state      9 was old state      7
 New state     11 was old state     16
 New state     13 was old state     11
 New state     14 was old state     13
 New state     15 was old state     39
 New state     16 was old state     14
 New state     17 was old state     15
 New state     18 was old state     17
 New state     20 was old state     22
 New state     21 was old state     18
 New state     22 was old state     21
 New state     23 was old state     20
 New state     26 was old state     23
 New state     28 was old state     29
 New state     29 was old state     26
 New state     30 was old state     28
 New state     31 was old state     30
 New state     32 was old state     33
 New state     33 was old state     32
 New state     34 was old state     31
 New state     35 was old state     34
 New state     36 was old state     52
 New state     37 was old state     38
 New state     38 was old state     36
 New state     39 was old state     41
 New state     40 was old state     35
 New state     41 was old state     42
 New state     42 was old state     37
 New state     43 was old state     40
 New state     44 was old state     46
 New state     45 was old state     47
 New state     46 was old state     43
 New state     47 was old state     55
 New state     48 was old state     44
 New state     49 was old state     45
 New state     50 was old state     48
 New state     51 was old state     68
 New state     52 was old state     54
 New state     53 was old state     51
 New state     54 was old state     50
 New state     55 was old state     53
 New state     56 was old state     49
 New state     57 was old state     61
 New state     58 was old state     60
 New state     59 was old state     56
 New state     60 was old state     57
 New state     61 was old state     58
 New state     62 was old state     59
 New state     63 was old state     65
 New state     65 was old state     63
 New state     66 was old state     70
 New state     68 was old state     62
 New state     69 was old state     66
 New state     70 was old state     79
 New state     72 was old state     69
 New state     73 was old state     72
 New state     74 was old state     76
 New state     75 was old state     73
 New state     76 was old state     86
 New state     77 was old state     74
 New state     78 was old state     75
 New state     79 was old state     80
 New state     80 was old state     77
 New state     82 was old state     99
 New state     83 was old state     78
 New state     84 was old state     87
 New state     85 was old state     83
 New state     86 was old state     84
 New state     87 was old state     82
 New state     89 was old state     85
 New state     90 was old state     93
 New state     91 was old state     96
 New state     92 was old state     89
 New state     93 was old state     90
 New state     95 was old state     92
 New state     96 was old state     91
 New state     97 was old state     98
 New state     98 was old state     95
 New state     99 was old state     97
 New state    102 was old state    106
 New state    103 was old state    108
 New state    104 was old state    109
 New state    105 was old state    102
 New state    106 was old state    115
 New state    107 was old state    103
 New state    108 was old state    112
 New state    109 was old state    110
 New state    110 was old state    104
 New state    111 was old state    107
 New state    112 was old state    105
 New state    113 was old state    128
 New state    114 was old state    111
 New state    115 was old state    122
 New state    116 was old state    113
 New state    117 was old state    114
 New state    118 was old state    116
 New state    119 was old state    123
 New state    120 was old state    117
 New state    121 was old state    120
 New state    122 was old state    119
 New state    123 was old state    118
 New state    126 was old state    121
 New state    128 was old state    130
 New state    129 was old state    132
 New state    130 was old state    129
 New state    132 was old state    126
 New state    133 was old state    135
 New state    134 was old state    139
 New state    135 was old state    150
 New state    136 was old state    134
 New state    137 was old state    133
 New state    138 was old state    137
 New state    139 was old state    142
 New state    140 was old state    143
 New state    141 was old state    144
 New state    142 was old state    138
 New state    143 was old state    146
 New state    144 was old state    140
 New state    145 was old state    136
 New state    146 was old state    147
 New state    147 was old state    141
 New state    148 was old state    149
 New state    149 was old state    148
 New state    150 was old state    145
 Iteration     3 Dimension  1200 NMult   900 NNew    300
 New state     73 was old state     74
 New state     74 was old state     73
 New state     95 was old state     96
 New state     96 was old state     95
 New state    100 was old state    101
 New state    101 was old state    100
 New state    105 was old state    106
 New state    106 was old state    105
 New state    111 was old state    112
 New state    112 was old state    111
 New state    125 was old state    126
 New state    126 was old state    125
 New state    128 was old state    129
 New state    129 was old state    128
 New state    133 was old state    135
 New state    134 was old state    133
 New state    135 was old state    134
 New state    143 was old state    144
 New state    144 was old state    143
 New state    145 was old state    146
 New state    146 was old state    145
 Iteration     4 Dimension  1500 NMult  1200 NNew    300
 New state    124 was old state    125
 New state    125 was old state    124
 New state    145 was old state    146
 New state    146 was old state    145
 New state    148 was old state    149
 New state    149 was old state    148
 No map to state    150
 Iteration     5 Dimension  1682 NMult  1500 NNew    182
 New state    144 was old state    145
 New state    145 was old state    144
 New state    147 was old state    149
 New state    149 was old state    147
 Iteration     6 Dimension  1744 NMult  1682 NNew     62
 Iteration     7 Dimension  1776 NMult  1744 NNew     32
 Iteration     8 Dimension  1794 NMult  1776 NNew     18
 ***********************************************************************
 Excited states from <AA,BB:AA,BB> singles matrix:
 ***********************************************************************
 
 Ground to excited state transition densities written to RWF  633
 Ground to excited state transition electric dipole moments (Au):
       state          X           Y           Z        Dip. S.      Osc.
         1         8.8482     -1.4723      0.0000     80.4588      4.6493
         2        -0.0000     -0.0000     -0.1837      0.0337      0.0027
         3         0.0000     -0.0000     -0.0422      0.0018      0.0002
         4         1.9626      0.6660     -0.0000      4.2953      0.4270
         5        -1.0470      0.0405      0.0000      1.0978      0.1242
         6        -0.0000     -0.0000     -0.2098      0.0440      0.0051
         7         0.2677     -0.5204     -0.0000      0.3425      0.0440
         8        -0.0000      0.0000      0.1151      0.0132      0.0017
         9         0.5753     -0.5633      0.0000      0.6483      0.0861
        10         0.0000     -0.0000     -0.1057      0.0112      0.0016
        11         0.4073     -0.4274     -0.0000      0.3485      0.0494
        12         0.0000      0.0000     -0.0166      0.0003      0.0000
        13        -0.0511     -0.0754     -0.0000      0.0083      0.0012
        14         0.0000      0.0000     -0.0143      0.0002      0.0000
        15        -0.0000     -0.0000     -0.1384      0.0192      0.0029
        16         0.0776     -0.0506     -0.0001      0.0086      0.0013
        17        -0.0000      0.0000     -0.3745      0.1403      0.0216
        18         0.0000      0.0000      0.0286      0.0008      0.0001
        19         0.0048     -0.1239      0.0000      0.0154      0.0024
        20         0.0803     -0.3083      0.0000      0.1015      0.0159
        21        -0.0195     -0.0061     -0.0000      0.0004      0.0001
        22        -0.2142      0.2135      0.0000      0.0915      0.0145
        23        -0.0001      0.0001     -0.0033      0.0000      0.0000
        24        -0.0000      0.0000     -0.0142      0.0002      0.0000
        25         0.2839     -0.1961     -0.0000      0.1191      0.0192
        26         0.0000      0.0000     -0.1838      0.0338      0.0054
        27        -0.0569     -0.0284      0.0000      0.0040      0.0007
        28        -0.0152      0.0379      0.0000      0.0017      0.0003
        29         0.0000      0.0000     -0.0154      0.0002      0.0000
        30         0.0000     -0.0000     -0.0475      0.0023      0.0004
        31        -0.0154      0.0953     -0.0000      0.0093      0.0015
        32         0.0085      0.0103      0.0000      0.0002      0.0000
        33        -0.0000      0.0000      0.0122      0.0001      0.0000
        34         0.0530     -0.0369     -0.0000      0.0042      0.0007
        35         0.0000      0.0000      0.0078      0.0001      0.0000
        36        -0.2465      0.1153      0.0000      0.0741      0.0125
        37         0.0000      0.0000      0.1483      0.0220      0.0037
        38        -0.5550      0.7815      0.0000      0.9187      0.1574
        39        -0.1863      0.2217      0.0000      0.0839      0.0144
        40        -0.0000     -0.0000      0.0298      0.0009      0.0002
        41        -0.0294     -0.0676      0.0000      0.0054      0.0009
        42        -0.0821      0.1474     -0.0000      0.0285      0.0049
        43        -0.0000      0.0001      0.1262      0.0159      0.0028
        44         0.0815     -0.5677      0.0000      0.3289      0.0572
        45        -0.0000     -0.0000     -0.0578      0.0033      0.0006
        46        -0.0000     -0.0000      0.0722      0.0052      0.0009
        47         0.0000      0.0000     -0.0490      0.0024      0.0004
        48         0.1001     -0.4889      0.0000      0.2490      0.0444
        49         0.0955      0.0284     -0.0000      0.0099      0.0018
        50         0.0000      0.0000      0.0451      0.0020      0.0004
        51        -0.2246     -0.2178      0.0000      0.0979      0.0176
        52         0.2236     -0.1241     -0.0000      0.0654      0.0119
        53        -0.0000     -0.0000     -0.0159      0.0003      0.0000
        54         0.1101     -0.2149      0.0000      0.0583      0.0107
        55         0.0967      0.2223      0.0000      0.0588      0.0108
        56         0.0000      0.0000      0.0437      0.0019      0.0004
        57         0.0000     -0.0000     -0.0060      0.0000      0.0000
        58        -0.0206      0.0064     -0.0000      0.0005      0.0001
        59         0.0000      0.0000     -0.0291      0.0008      0.0002
        60         0.0000      0.0000      0.1639      0.0269      0.0051
        61        -0.0000     -0.0000      0.0087      0.0001      0.0000
        62        -0.0005     -0.0088      0.0000      0.0001      0.0000
        63         0.0000      0.0000      0.0265      0.0007      0.0001
        64        -0.2085     -0.0796      0.0000      0.0498      0.0095
        65         0.0191      0.0337     -0.0001      0.0015      0.0003
        66        -0.0000     -0.0000     -0.0723      0.0052      0.0010
        67         0.0000      0.0000     -0.0181      0.0003      0.0001
        68         0.0000      0.0000      0.0159      0.0003      0.0000
        69         0.1496      0.1295      0.0000      0.0392      0.0075
        70         0.0000      0.0000     -0.0801      0.0064      0.0012
        71         0.0506     -0.0639     -0.0000      0.0066      0.0013
        72        -0.0000     -0.0000     -0.1895      0.0359      0.0070
        73         0.0000      0.0000     -0.1355      0.0184      0.0036
        74         0.0954      0.3197     -0.0000      0.1113      0.0216
        75        -0.2234      0.2244      0.0000      0.1003      0.0195
        76        -0.0889      0.0515      0.0000      0.0106      0.0021
        77         0.0560      0.0585     -0.0000      0.0066      0.0013
        78        -0.0000      0.0000      0.0001      0.0000      0.0000
        79        -0.3160      0.4130      0.0000      0.2704      0.0533
        80        -0.0000      0.0000     -0.0568      0.0032      0.0006
        81        -0.0000      0.0000      0.0062      0.0000      0.0000
        82        -0.1700      0.1785     -0.0000      0.0608      0.0120
        83         0.0000      0.0000      0.0382      0.0015      0.0003
        84        -0.0000     -0.0000     -0.0594      0.0035      0.0007
        85         0.2949      0.7014     -0.0000      0.5790      0.1158
        86         0.0000      0.0000      0.0821      0.0067      0.0014
        87         0.1654      0.0426     -0.0000      0.0292      0.0059
        88        -0.0005     -0.0004     -0.0372      0.0014      0.0003
        89         0.3484      0.3209     -0.0001      0.2244      0.0452
        90        -0.0000      0.0000     -0.0303      0.0009      0.0002
        91        -0.0000     -0.0000     -0.0098      0.0001      0.0000
        92        -0.1314     -0.1128      0.0000      0.0300      0.0061
        93        -0.1147      0.0598      0.0000      0.0167      0.0034
        94         0.0000     -0.0000      0.0979      0.0096      0.0020
        95        -0.0000     -0.0000     -0.0940      0.0088      0.0018
        96        -0.1821     -0.1097      0.0000      0.0452      0.0092
        97        -0.0468      0.3063      0.0000      0.0960      0.0197
        98         0.0250     -0.1128     -0.0000      0.0133      0.0027
        99        -0.0000      0.0000     -0.0373      0.0014      0.0003
       100         0.0000     -0.0000     -0.0758      0.0057      0.0012
       101         0.0468     -0.0494     -0.0000      0.0046      0.0010
       102         0.0000     -0.0000      0.0823      0.0068      0.0014
       103         0.0453     -0.0907      0.0000      0.0103      0.0021
       104        -0.0000      0.0000      0.0011      0.0000      0.0000
       105         0.0926     -0.0930     -0.0000      0.0172      0.0036
       106        -0.0000      0.0000     -0.0935      0.0087      0.0018
       107        -0.0414      0.4517     -0.0000      0.2057      0.0430
       108        -0.0000      0.0000     -0.0696      0.0048      0.0010
       109         0.3889     -0.4719     -0.0000      0.3740      0.0785
       110         0.2231     -0.4135     -0.0000      0.2208      0.0464
       111         0.0698     -0.0672      0.0001      0.0094      0.0020
       112        -0.0001      0.0001      0.0605      0.0037      0.0008
       113        -0.0815      0.1584      0.0000      0.0317      0.0067
       114         0.0000     -0.0000     -0.0694      0.0048      0.0010
       115        -0.0000      0.0000     -0.1799      0.0324      0.0069
       116        -0.0069      0.1357      0.0000      0.0185      0.0039
       117         0.0000      0.0000     -0.0420      0.0018      0.0004
       118        -0.0000      0.0000     -0.1709      0.0292      0.0063
       119         0.0694      0.2311     -0.0000      0.0582      0.0125
       120         0.1885     -0.3536     -0.0000      0.1606      0.0345
       121         0.0000     -0.0000      0.0572      0.0033      0.0007
       122         0.0000      0.0000     -0.1187      0.0141      0.0030
       123         0.0041     -0.0777      0.0000      0.0061      0.0013
       124        -0.0231      0.0059     -0.0000      0.0006      0.0001
       125        -0.0000      0.0000     -0.0370      0.0014      0.0003
       126        -0.0000     -0.0000     -0.0400      0.0016      0.0003
       127        -0.0117      0.3421      0.0000      0.1172      0.0253
       128         0.0820      0.6146      0.0000      0.3845      0.0833
       129        -0.0000     -0.0000     -0.1238      0.0153      0.0033
       130        -0.0066     -0.0793     -0.0000      0.0063      0.0014
       131        -0.0000     -0.0001      0.0357      0.0013      0.0003
       132        -0.0408     -0.0522     -0.0000      0.0044      0.0010
       133        -0.0000     -0.0000     -0.0956      0.0091      0.0020
       134         0.0000     -0.0000      0.0854      0.0073      0.0016
       135        -0.1335      0.1903      0.0000      0.0540      0.0118
       136         0.0081     -0.1027     -0.0000      0.0106      0.0023
       137         0.0000      0.0000      0.0238      0.0006      0.0001
       138        -0.0107      0.0460     -0.0000      0.0022      0.0005
       139        -0.1203     -0.3656      0.0000      0.1481      0.0326
       140        -0.0000     -0.0001     -0.0929      0.0086      0.0019
       141        -0.0018      0.2756      0.0000      0.0760      0.0167
       142         0.0000      0.0000     -0.0984      0.0097      0.0021
       143         0.0000      0.0000     -0.0722      0.0052      0.0011
       144         0.0580      0.0707      0.0000      0.0084      0.0018
       145         0.0000      0.0000      0.0808      0.0065      0.0014
       146        -0.0000     -0.0000      0.0768      0.0059      0.0013
       147        -0.0000     -0.0000     -0.0200      0.0004      0.0001
       148        -0.0344      0.0241     -0.0000      0.0018      0.0004
       149        -0.0026     -0.0939     -0.0000      0.0088      0.0020
       150         0.0000     -0.0000     -0.2994      0.0896      0.0200
 Ground to excited state transition velocity dipole moments (Au):
       state          X           Y           Z        Dip. S.      Osc.
         1        -0.7628      0.1274     -0.0000      0.5981      4.6002
         2         0.0000     -0.0000      0.0224      0.0005      0.0027
         3        -0.0000     -0.0000      0.0062      0.0000      0.0002
         4        -0.2922     -0.0973      0.0000      0.0949      0.4242
         5         0.1756     -0.0090      0.0000      0.0309      0.1214
         6        -0.0000      0.0000      0.0367      0.0013      0.0051
         7        -0.0522      0.1012      0.0000      0.0130      0.0449
         8         0.0000     -0.0000     -0.0223      0.0005      0.0017
         9        -0.1136      0.1119     -0.0000      0.0254      0.0851
        10        -0.0000      0.0000      0.0225      0.0005      0.0016
        11        -0.0874      0.0925      0.0000      0.0162      0.0508
        12         0.0000     -0.0000      0.0039      0.0000      0.0000
        13         0.0117      0.0167      0.0000      0.0004      0.0013
        14        -0.0000     -0.0000      0.0022      0.0000      0.0000
        15        -0.0000     -0.0000      0.0308      0.0010      0.0028
        16        -0.0172      0.0115      0.0000      0.0004      0.0012
        17         0.0000     -0.0000      0.0902      0.0081      0.0235
        18        -0.0000     -0.0000     -0.0068      0.0000      0.0001
        19        -0.0009      0.0296      0.0000      0.0009      0.0025
        20        -0.0182      0.0740     -0.0000      0.0058      0.0165
        21         0.0047      0.0016      0.0000      0.0000      0.0001
        22         0.0488     -0.0518     -0.0000      0.0051      0.0142
        23         0.0000     -0.0000      0.0009      0.0000      0.0000
        24        -0.0000     -0.0000      0.0027      0.0000      0.0000
        25        -0.0693      0.0450     -0.0000      0.0068      0.0189
        26        -0.0000     -0.0000      0.0424      0.0018      0.0050
        27         0.0135      0.0056     -0.0000      0.0002      0.0006
        28         0.0039     -0.0079     -0.0000      0.0001      0.0002
        29         0.0000      0.0000      0.0031      0.0000      0.0000
        30        -0.0000      0.0000      0.0108      0.0001      0.0003
        31         0.0032     -0.0236      0.0000      0.0006      0.0015
        32        -0.0019     -0.0024     -0.0000      0.0000      0.0000
        33         0.0000      0.0000     -0.0028      0.0000      0.0000
        34        -0.0123      0.0097      0.0000      0.0002      0.0007
        35         0.0000     -0.0000     -0.0021      0.0000      0.0000
        36         0.0641     -0.0269     -0.0000      0.0048      0.0127
        37         0.0000     -0.0000     -0.0374      0.0014      0.0037
        38         0.1409     -0.1998     -0.0000      0.0598      0.1551
        39         0.0471     -0.0571     -0.0000      0.0055      0.0142
        40         0.0000      0.0000     -0.0060      0.0000      0.0001
        41         0.0075      0.0170     -0.0000      0.0003      0.0009
        42         0.0196     -0.0384      0.0000      0.0019      0.0048
        43         0.0000     -0.0000     -0.0326      0.0011      0.0027
        44        -0.0237      0.1444     -0.0000      0.0214      0.0547
        45         0.0000      0.0000      0.0153      0.0002      0.0006
        46        -0.0000      0.0000     -0.0196      0.0004      0.0010
        47        -0.0000     -0.0000      0.0132      0.0002      0.0004
        48        -0.0271      0.1281      0.0000      0.0172      0.0427
        49        -0.0254     -0.0074      0.0000      0.0007      0.0017
        50         0.0000     -0.0000     -0.0144      0.0002      0.0005
        51         0.0609      0.0573     -0.0000      0.0070      0.0173
        52        -0.0610      0.0339     -0.0000      0.0049      0.0119
        53         0.0000      0.0000      0.0041      0.0000      0.0000
        54        -0.0302      0.0598     -0.0000      0.0045      0.0109
        55        -0.0265     -0.0616      0.0000      0.0045      0.0109
        56        -0.0000     -0.0000     -0.0124      0.0002      0.0004
        57         0.0000      0.0000      0.0018      0.0000      0.0000
        58         0.0056     -0.0019      0.0000      0.0000      0.0001
        59        -0.0000     -0.0000      0.0084      0.0001      0.0002
        60        -0.0000     -0.0000     -0.0496      0.0025      0.0058
        61         0.0000      0.0000     -0.0041      0.0000      0.0000
        62         0.0001      0.0025     -0.0000      0.0000      0.0000
        63        -0.0000     -0.0000     -0.0099      0.0001      0.0002
        64         0.0584      0.0226     -0.0000      0.0039      0.0091
        65        -0.0052     -0.0092      0.0000      0.0001      0.0003
        66         0.0000      0.0000      0.0191      0.0004      0.0009
        67        -0.0000     -0.0000      0.0065      0.0000      0.0001
        68        -0.0000      0.0000     -0.0042      0.0000      0.0000
        69        -0.0423     -0.0394     -0.0000      0.0033      0.0077
        70        -0.0000     -0.0000      0.0228      0.0005      0.0012
        71        -0.0145      0.0186      0.0000      0.0006      0.0013
        72         0.0000      0.0000      0.0552      0.0030      0.0070
        73         0.0000     -0.0000      0.0403      0.0016      0.0037
        74        -0.0283     -0.0937      0.0000      0.0096      0.0219
        75         0.0669     -0.0665     -0.0000      0.0089      0.0203
        76         0.0260     -0.0151     -0.0000      0.0009      0.0021
        77        -0.0170     -0.0178      0.0000      0.0006      0.0014
        78         0.0000     -0.0000     -0.0008      0.0000      0.0000
        79         0.0926     -0.1230     -0.0000      0.0237      0.0535
        80         0.0000     -0.0000      0.0158      0.0003      0.0006
        81         0.0000     -0.0000     -0.0023      0.0000      0.0000
        82         0.0505     -0.0535      0.0000      0.0054      0.0121
        83         0.0000     -0.0000     -0.0135      0.0002      0.0004
        84         0.0000      0.0000      0.0176      0.0003      0.0007
        85        -0.0908     -0.2124     -0.0000      0.0534      0.1185
        86        -0.0000     -0.0000     -0.0231      0.0005      0.0012
        87        -0.0494     -0.0121     -0.0000      0.0026      0.0057
        88         0.0001      0.0001      0.0110      0.0001      0.0003
        89        -0.1041     -0.0958      0.0000      0.0200      0.0442
        90         0.0000     -0.0000      0.0097      0.0001      0.0002
        91         0.0000      0.0000      0.0023      0.0000      0.0000
        92         0.0402      0.0356     -0.0000      0.0029      0.0063
        93         0.0364     -0.0164      0.0000      0.0016      0.0035
        94        -0.0000      0.0000     -0.0276      0.0008      0.0017
        95         0.0000      0.0000      0.0289      0.0008      0.0018
        96         0.0543      0.0342     -0.0000      0.0041      0.0090
        97         0.0143     -0.0929     -0.0000      0.0088      0.0192
        98        -0.0067      0.0344      0.0000      0.0012      0.0027
        99        -0.0000     -0.0000      0.0127      0.0002      0.0004
       100        -0.0000     -0.0000      0.0238      0.0006      0.0012
       101        -0.0130      0.0166      0.0000      0.0004      0.0010
       102        -0.0000      0.0000     -0.0224      0.0005      0.0011
       103        -0.0131      0.0287     -0.0000      0.0010      0.0021
       104        -0.0000     -0.0000      0.0004      0.0000      0.0000
       105        -0.0281      0.0297      0.0000      0.0017      0.0036
       106        -0.0000     -0.0000      0.0281      0.0008      0.0017
       107         0.0121     -0.1419      0.0000      0.0203      0.0432
       108         0.0000     -0.0000      0.0236      0.0006      0.0012
       109        -0.1204      0.1495      0.0000      0.0369      0.0780
       110        -0.0683      0.1296      0.0000      0.0215      0.0454
       111        -0.0216      0.0204     -0.0000      0.0009      0.0019
       112         0.0000     -0.0000     -0.0186      0.0003      0.0007
       113         0.0254     -0.0503     -0.0000      0.0032      0.0067
       114        -0.0000      0.0000      0.0195      0.0004      0.0008
       115         0.0000     -0.0000      0.0551      0.0030      0.0063
       116         0.0025     -0.0443     -0.0000      0.0020      0.0041
       117        -0.0000     -0.0000      0.0137      0.0002      0.0004
       118         0.0000     -0.0000      0.0534      0.0029      0.0059
       119        -0.0210     -0.0721      0.0000      0.0056      0.0117
       120        -0.0607      0.1120      0.0000      0.0162      0.0336
       121        -0.0000      0.0000     -0.0169      0.0003      0.0006
       122        -0.0000     -0.0000      0.0384      0.0015      0.0030
       123        -0.0015      0.0229     -0.0000      0.0005      0.0011
       124         0.0080     -0.0006      0.0000      0.0001      0.0001
       125         0.0000     -0.0000      0.0146      0.0002      0.0004
       126         0.0000      0.0000      0.0138      0.0002      0.0004
       127         0.0043     -0.1085      0.0000      0.0118      0.0242
       128        -0.0229     -0.1916     -0.0000      0.0372      0.0764
       129        -0.0000      0.0000      0.0408      0.0017      0.0034
       130         0.0035      0.0266      0.0000      0.0007      0.0015
       131         0.0000      0.0000     -0.0120      0.0001      0.0003
       132         0.0132      0.0167      0.0000      0.0005      0.0009
       133         0.0000      0.0000      0.0313      0.0010      0.0020
       134        -0.0000      0.0000     -0.0290      0.0008      0.0017
       135         0.0422     -0.0631     -0.0000      0.0058      0.0117
       136        -0.0047      0.0326      0.0000      0.0011      0.0022
       137        -0.0000     -0.0000     -0.0033      0.0000      0.0000
       138         0.0039     -0.0154      0.0000      0.0003      0.0005
       139         0.0393      0.1216     -0.0000      0.0163      0.0330
       140         0.0000      0.0000      0.0287      0.0008      0.0017
       141         0.0017     -0.0878     -0.0000      0.0077      0.0155
       142        -0.0000     -0.0000      0.0322      0.0010      0.0021
       143        -0.0000     -0.0000      0.0281      0.0008      0.0016
       144        -0.0195     -0.0235     -0.0000      0.0009      0.0019
       145        -0.0000     -0.0000     -0.0267      0.0007      0.0014
       146         0.0000      0.0000     -0.0252      0.0006      0.0013
       147         0.0000      0.0000      0.0055      0.0000      0.0001
       148         0.0113     -0.0084      0.0000      0.0002      0.0004
       149        -0.0016      0.0289     -0.0000      0.0008      0.0017
       150        -0.0000      0.0000      0.1004      0.0101      0.0200
 Ground to excited state transition magnetic dipole moments (Au):
       state          X           Y           Z
         1        -0.0277     -0.3022     -0.0000
         2        -0.0000     -0.0000     -0.6835
         3         0.0000     -0.0000      0.1960
         4         0.0057     -0.6456      0.0000
         5         0.0060      0.2758      0.0000
         6        -0.0000     -0.0000      0.3223
         7        -0.0365     -0.6888      0.0000
         8         0.0000      0.0000     -0.8583
         9        -0.0176     -0.0053      0.0000
        10        -0.0000      0.0000      1.4662
        11        -0.0357     -0.7159     -0.0000
        12         0.0000     -0.0000      1.0437
        13        -0.1253      0.2812      0.0001
        14         0.0000     -0.0000     -0.0381
        15         0.0000     -0.0000      2.2749
        16        -0.7000     -1.5275      0.0001
        17         0.0001      0.0003      0.7845
        18         0.0000      0.0000     -1.1781
        19        -0.1444     -0.3719     -0.0000
        20        -0.1261     -0.7394      0.0000
        21        -0.1668     -0.0757     -0.0000
        22        -0.0239      0.2459      0.0001
        23        -0.0000      0.0001     -0.2994
        24        -0.0000      0.0000     -1.0350
        25         0.0443      0.0047      0.0000
        26        -0.0000     -0.0000     -0.1206
        27         0.1228      0.1948     -0.0000
        28         0.1187     -0.1486      0.0000
        29        -0.0000     -0.0000     -1.0230
        30         0.0000      0.0000      0.0545
        31        -0.1345      0.4770      0.0001
        32        -0.3357     -0.2240     -0.0000
        33         0.0001     -0.0000     -0.0208
        34         0.3902      0.6556     -0.0000
        35        -0.0000      0.0000      0.3957
        36         0.0859      0.4358     -0.0001
        37         0.0000      0.0000     -3.0740
        38         0.1105      0.4105     -0.0000
        39        -0.0285      0.3367     -0.0000
        40        -0.0000      0.0000      1.3455
        41        -0.3551      0.1782     -0.0000
        42        -0.0680     -0.2880      0.0001
        43        -0.0000      0.0001     -3.0760
        44         0.0387     -0.5707     -0.0004
        45         0.0000     -0.0000     -1.4233
        46        -0.0000      0.0000      0.0619
        47        -0.0000      0.0000      2.3504
        48        -0.0009      0.0922     -0.0000
        49         0.3213      0.9967      0.0000
        50         0.0000      0.0000      0.0202
        51        -0.0322     -0.0671     -0.0001
        52         0.3425      0.0409     -0.0000
        53        -0.0000      0.0001      0.2415
        54        -0.6022     -0.4654      0.0001
        55        -0.3909      0.1082     -0.0000
        56         0.0000      0.0000     -1.7119
        57        -0.0000     -0.0001     -0.3072
        58         0.0667      0.3072     -0.0001
        59        -0.0000      0.0001     -0.2116
        60         0.0000      0.0000     -0.9935
        61        -0.0000     -0.0001      1.1604
        62        -0.1825     -0.4383     -0.0002
        63        -0.0000      0.0000      0.2072
        64         0.0647     -0.5143      0.0000
        65         0.0352      0.7428      0.0005
        66        -0.0000     -0.0010      0.4473
        67         0.0000      0.0001      1.0337
        68         0.0000      0.0000     -1.3527
        69         0.2623      0.0820     -0.0000
        70        -0.0000      0.0000      2.6661
        71        -0.1730     -0.8703      0.0001
        72        -0.0000     -0.0002     -0.8449
        73         0.0000      0.0002      0.9900
        74         0.2121      1.3980     -0.0002
        75        -0.0839     -0.9220      0.0001
        76        -1.5469     -0.2895     -0.0001
        77        -0.3431     -0.3389      0.0000
        78         0.0001      0.0001     -2.2540
        79         0.6916      1.0391      0.0003
        80        -0.0000      0.0000      1.4674
        81        -0.0000      0.0000     -1.4707
        82        -0.5054     -0.2268      0.0000
        83        -0.0000     -0.0000     -2.0099
        84        -0.0000     -0.0000      1.3989
        85        -0.0396      0.4752      0.0001
        86        -0.0000     -0.0000     -1.8035
        87        -0.2083      0.5038      0.0001
        88        -0.0006     -0.0004      2.1125
        89         0.4905      0.2753      0.0025
        90        -0.0000     -0.0000      1.3598
        91        -0.0000      0.0000     -0.3439
        92         0.5109     -0.0625      0.0000
        93        -0.1941      0.3405     -0.0000
        94         0.0000      0.0000     -0.6415
        95         0.0000     -0.0002      1.5550
        96         0.0676     -0.4829     -0.0003
        97        -0.2637      0.8310     -0.0000
        98         0.4307      0.0558      0.0000
        99        -0.0000     -0.0000     -0.2500
       100         0.0000      0.0000     -1.9003
       101        -0.7908      0.4798     -0.0000
       102        -0.0000      0.0001      1.7986
       103         1.1603      1.0489     -0.0001
       104         0.0000     -0.0000     -1.2550
       105        -1.9351      0.1284      0.0000
       106         0.0000     -0.0000      4.2256
       107         0.0019     -1.4128     -0.0001
       108        -0.0000      0.0000      1.4129
       109         0.2709     -0.9466     -0.0001
       110        -0.1261      0.6789      0.0000
       111         0.1376     -0.3289      0.0015
       112        -0.0002      0.0003      1.4428
       113         0.6289      0.2985     -0.0000
       114        -0.0000     -0.0001     -0.8355
       115         0.0000      0.0001     -1.1355
       116        -0.0158      0.3080     -0.0003
       117         0.0000      0.0000      2.4039
       118        -0.0000      0.0000     -0.6103
       119         0.1630     -0.0045      0.0001
       120        -0.0719      0.3890     -0.0000
       121        -0.0000     -0.0000      0.2735
       122        -0.0000     -0.0000     -0.6432
       123        -0.3210     -0.1482      0.0001
       124        -0.1796     -0.6803     -0.0001
       125        -0.0000      0.0001      1.4724
       126        -0.0000     -0.0000      0.7168
       127        -0.2289      0.8303     -0.0001
       128        -0.0119     -0.2569     -0.0000
       129         0.0000      0.0000     -1.6888
       130         0.1859     -0.1583      0.0001
       131         0.0001     -0.0001     -0.1420
       132        -0.3974     -0.5865     -0.0001
       133        -0.0000     -0.0000      0.3656
       134         0.0000      0.0000     -1.9352
       135         0.0319      0.0395     -0.0001
       136         0.2613     -0.2573     -0.0001
       137         0.0000      0.0001      1.3823
       138         0.1774     -1.0761      0.0003
       139        -0.4860     -0.1068     -0.0002
       140        -0.0002      0.0002      1.2456
       141         0.1623     -0.4061      0.0000
       142         0.0000      0.0001     -0.2334
       143         0.0000      0.0000      0.1975
       144         0.2638     -0.3754      0.0003
       145         0.0000      0.0000      1.7109
       146        -0.0000      0.0001      0.1422
       147        -0.0001     -0.0000      0.5655
       148         0.4384      0.0821     -0.0002
       149        -0.1210      0.3053      0.0001
       150        -0.0000     -0.0000     -0.1363
 Ground to excited state transition velocity quadrupole moments (Au):
       state          XX          YY          ZZ          XY          XZ          YZ
         1        -0.0000      0.0000     -0.0000     -0.0000      0.1403     -0.0094
         2       -23.1213     -0.4633     -0.0659      1.6292      0.0000     -0.0000
         3        -5.6747     -0.1336     -0.0361      0.5806      0.0000     -0.0000
         4         0.0001     -0.0000     -0.0000     -0.0000      0.7733     -0.0963
         5        -0.0000      0.0000      0.0000     -0.0000     -0.3124      0.0334
         6        -8.8075      0.2515     -0.0080      0.1946      0.0000     -0.0000
         7         0.0001     -0.0000     -0.0000      0.0000      0.8342     -0.0520
         8         7.1912      0.0027      0.0141     -1.0356     -0.0000      0.0000
         9         0.0000      0.0000      0.0000      0.0000     -0.0276      0.0182
        10        -0.8203     -0.1365      0.0279      1.4167     -0.0000     -0.0000
        11         0.0000      0.0000     -0.0000      0.0000      0.8710     -0.0594
        12        -2.4009     -0.4974     -0.0000      1.5096      0.0000      0.0000
        13        -0.0003     -0.0001     -0.0000      0.0002      0.0215     -0.0978
        14        -1.2628     -0.2872      0.0203      0.2047     -0.0000      0.0000
        15        -3.6312      0.0856      0.0582      2.3487      0.0000      0.0000
        16        -0.0002     -0.0000     -0.0000      0.0001      1.5960     -0.6060
        17        -1.1712      0.0318     -0.0691      0.6886     -0.0003      0.0001
        18         2.6732      0.4805      0.0248     -1.3972     -0.0000      0.0000
        19        -0.0000      0.0000      0.0000     -0.0000      0.3250     -0.0830
        20        -0.0000      0.0000      0.0000     -0.0000      0.7031     -0.0934
        21        -0.0000      0.0000      0.0000      0.0000      0.0739     -0.0867
        22         0.0002      0.0000     -0.0000      0.0001     -0.3412      0.0031
        23        -0.5946     -0.0268      0.0221     -0.2885     -0.0001      0.0000
        24        -0.7847      0.0250     -0.0094     -1.0661     -0.0000     -0.0000
        25         0.0001     -0.0000     -0.0000      0.0000      0.0230      0.0201
        26         1.0099     -0.0324      0.0272     -0.0201      0.0000      0.0000
        27         0.0000     -0.0000     -0.0000     -0.0000     -0.1922      0.0677
        28         0.0000      0.0000     -0.0000     -0.0000      0.2066      0.0176
        29         1.3057      0.2296      0.0204     -1.0288      0.0000     -0.0000
        30        -0.7599     -0.1571      0.0937      0.1150     -0.0000      0.0000
        31        -0.0001     -0.0000      0.0000      0.0001     -0.5266     -0.1078
        32        -0.0004     -0.0000     -0.0000      0.0000     -0.1014     -0.1301
        33        -1.4049     -0.1261     -0.0541      0.0224      0.0001      0.0000
        34         0.0001     -0.0000     -0.0000     -0.0000     -0.5711      0.2460
        35        -0.2475      0.0526      0.0102      0.3319     -0.0000     -0.0000
        36         0.0001     -0.0000     -0.0000     -0.0001     -0.5544      0.0717
        37         4.8855     -0.5080     -0.1429     -3.2595     -0.0000     -0.0000
        38        -0.0001      0.0000      0.0000     -0.0000     -0.5165      0.0277
        39         0.0000     -0.0000     -0.0000     -0.0001     -0.3224      0.0310
        40        -0.7740      0.0174     -0.0432      1.1684     -0.0000     -0.0000
        41         0.0001     -0.0000     -0.0000     -0.0000      0.0146     -0.1486
        42        -0.0001     -0.0000     -0.0000      0.0001      0.2792      0.0556
        43         2.3865      0.2823     -0.0962     -3.0185     -0.0001      0.0000
        44         0.0003      0.0000     -0.0000     -0.0004      0.6681     -0.0203
        45         2.1837      0.0376     -0.1286     -1.3755      0.0000     -0.0000
        46         0.2115     -0.0618     -0.0252      0.0195     -0.0000      0.0000
        47        -0.0382     -1.0244      0.0228      2.3256     -0.0000     -0.0000
        48         0.0000      0.0000     -0.0000     -0.0000     -0.0918      0.0353
        49        -0.0000      0.0000      0.0000      0.0000     -0.8459      0.1963
        50        -0.5078     -0.1599      0.0020      0.1605     -0.0000      0.0000
        51        -0.0000     -0.0000     -0.0000     -0.0001      0.0842     -0.0096
        52        -0.0003     -0.0000     -0.0000      0.0000      0.0018      0.0921
        53        -4.5349     -0.2205     -0.0710      0.5658     -0.0001     -0.0000
        54         0.0000     -0.0000     -0.0000      0.0000      0.3556     -0.1404
        55         0.0001      0.0000     -0.0000     -0.0000     -0.2762     -0.0420
        56         1.7859      0.2080     -0.0244     -2.2035     -0.0000      0.0000
        57        -0.4925      0.0127     -0.0098     -0.2646      0.0001     -0.0000
        58        -0.0003      0.0000     -0.0000     -0.0000     -0.3096      0.0490
        59        -1.1306      0.0594     -0.0038     -0.0643     -0.0000     -0.0000
        60        -1.4385      0.1508      0.1769     -0.8474     -0.0000      0.0000
        61        -1.5608     -0.0082      0.0882      1.1554      0.0000     -0.0000
        62         0.0003      0.0000     -0.0000     -0.0002      0.0392      0.0533
        63        -0.0416     -0.0623      0.0507      0.3155     -0.0000      0.0000
        64         0.0001      0.0000     -0.0000      0.0000      0.4249     -0.0393
        65        -0.0022      0.0000      0.0001      0.0008     -0.6423      0.1291
        66        -1.6793      0.0120      0.0409      0.6745      0.0008     -0.0002
        67        -1.4194     -0.1180      0.0197      1.3552     -0.0001      0.0000
        68        -0.0572      0.5686     -0.0337     -1.4655     -0.0000      0.0000
        69         0.0001     -0.0000      0.0000      0.0000      0.0367      0.2359
        70        -0.1561     -0.0201      0.1138      2.4515     -0.0000      0.0000
        71        -0.0001     -0.0000      0.0000      0.0001      1.2075     -0.0838
        72         2.0700     -0.1381     -0.0210     -0.8334      0.0001     -0.0000
        73        -2.0744      0.0048      0.0526      1.1471     -0.0002      0.0000
        74         0.0005     -0.0000     -0.0000     -0.0003     -1.0680      0.1199
        75        -0.0001      0.0000      0.0000      0.0001      0.6067      0.0356
        76         0.0000     -0.0000     -0.0000     -0.0001     -0.0872     -0.4149
        77        -0.0000      0.0000      0.0000     -0.0000      0.5892     -0.2944
[...]
 Alpha virt. eigenvalues --    2.36153   2.36432   2.37089   2.37101   2.37705
 Alpha virt. eigenvalues --    2.37743   2.38574   2.39137   2.39181   2.40459
 Alpha virt. eigenvalues --    2.40790   2.40844   2.41431   2.41451   2.41566
 Alpha virt. eigenvalues --    2.41614   2.42008   2.42504   2.43049   2.43177
 Alpha virt. eigenvalues --    2.44371   2.44382   2.46059   2.46075   2.46360
 Alpha virt. eigenvalues --    2.46697   2.46708   2.47072   2.47597   2.47908
 Alpha virt. eigenvalues --    2.47911   2.48133   2.48467   2.48848   2.49666
 Alpha virt. eigenvalues --    2.49832   2.50062   2.50089   2.50601   2.50605
 Alpha virt. eigenvalues --    2.51601   2.51785   2.52550   2.52653   2.53017
 Alpha virt. eigenvalues --    2.53536   2.54074   2.54344   2.54534   2.55730
 Alpha virt. eigenvalues --    2.55743   2.55897   2.56478   2.56755   2.56843
 Alpha virt. eigenvalues --    2.57321   2.58782   2.58903   2.59511   2.59512
 Alpha virt. eigenvalues --    2.60143   2.60146   2.60464   2.61086   2.61109
 Alpha virt. eigenvalues --    2.61618   2.61943   2.61998   2.62293   2.62309
 Alpha virt. eigenvalues --    2.62938   2.63042   2.63822   2.64084   2.64293
 Alpha virt. eigenvalues --    2.64303   2.64786   2.64794   2.65826   2.65827
 Alpha virt. eigenvalues --    2.65881   2.66682   2.67069   2.67204   2.67290
 Alpha virt. eigenvalues --    2.67665   2.67720   2.67723   2.68578   2.68798
 Alpha virt. eigenvalues --    2.68827   2.69045   2.69053   2.69467   2.70015
 Alpha virt. eigenvalues --    2.70162   2.70203   2.70394   2.70533   2.70824
 Alpha virt. eigenvalues --    2.71294   2.71507   2.71541   2.72235   2.72842
 Alpha virt. eigenvalues --    2.72984   2.73012   2.73775   2.74387   2.74526
 Alpha virt. eigenvalues --    2.74709   2.74969   2.75346   2.75623   2.75678
 Alpha virt. eigenvalues --    2.75933   2.77008   2.77411   2.77432   2.77544
 Alpha virt. eigenvalues --    2.78173   2.78575   2.78821   2.79254   2.79854
 Alpha virt. eigenvalues --    2.80155   2.81042   2.81071   2.81620   2.82125
 Alpha virt. eigenvalues --    2.82184   2.82509   2.82982   2.83458   2.83557
 Alpha virt. eigenvalues --    2.83738   2.84048   2.84295   2.84654   2.84841
 Alpha virt. eigenvalues --    2.85330   2.85359   2.85494   2.85596   2.85952
 Alpha virt. eigenvalues --    2.85991   2.86362   2.86762   2.87181   2.87201
 Alpha virt. eigenvalues --    2.87900   2.87972   2.88238   2.88726   2.88789
 Alpha virt. eigenvalues --    2.89190   2.90015   2.90531   2.90648   2.91708
 Alpha virt. eigenvalues --    2.91973   2.92363   2.92550   2.92762   2.93022
 Alpha virt. eigenvalues --    2.93069   2.94183   2.94234   2.94587   2.94751
 Alpha virt. eigenvalues --    2.94871   2.94911   2.95371   2.95710   2.96960
 Alpha virt. eigenvalues --    2.97378   2.97404   2.97831   2.98016   2.98464
 Alpha virt. eigenvalues --    2.98572   2.98873   2.99070   2.99317   2.99331
 Alpha virt. eigenvalues --    2.99774   2.99916   3.00849   3.00882   3.01281
 Alpha virt. eigenvalues --    3.01856   3.01900   3.02177   3.02379   3.02845
 Alpha virt. eigenvalues --    3.03986   3.04032   3.04293   3.04805   3.05099
 Alpha virt. eigenvalues --    3.05456   3.05795   3.06018   3.06270   3.07576
 Alpha virt. eigenvalues --    3.07578   3.07731   3.08373   3.08749   3.09591
 Alpha virt. eigenvalues --    3.10257   3.10665   3.11467   3.11617   3.12209
 Alpha virt. eigenvalues --    3.12346   3.12602   3.12628   3.12745   3.12927
 Alpha virt. eigenvalues --    3.13513   3.13705   3.13874   3.14165   3.14542
 Alpha virt. eigenvalues --    3.15023   3.15357   3.15399   3.15623   3.15808
 Alpha virt. eigenvalues --    3.16029   3.16970   3.17536   3.17673   3.18273
 Alpha virt. eigenvalues --    3.18465   3.18621   3.18902   3.19030   3.19315
 Alpha virt. eigenvalues --    3.19342   3.19584   3.19982   3.20337   3.20788
 Alpha virt. eigenvalues --    3.21382   3.21394   3.21647   3.21668   3.22010
 Alpha virt. eigenvalues --    3.22164   3.22875   3.22990   3.23139   3.23709
 Alpha virt. eigenvalues --    3.23978   3.24829   3.25386   3.25426   3.25810
 Alpha virt. eigenvalues --    3.25836   3.25888   3.25961   3.26584   3.26717
 Alpha virt. eigenvalues --    3.26997   3.27410   3.27858   3.27965   3.28388
 Alpha virt. eigenvalues --    3.29023   3.29311   3.29748   3.29777   3.30118
 Alpha virt. eigenvalues --    3.30154   3.30448   3.30461   3.30778   3.31083
 Alpha virt. eigenvalues --    3.31112   3.31714   3.31920   3.32519   3.32644
 Alpha virt. eigenvalues --    3.32823   3.33296   3.33780   3.34329   3.34737
 Alpha virt. eigenvalues --    3.34858   3.35409   3.35477   3.35486   3.35997
 Alpha virt. eigenvalues --    3.36050   3.36344   3.36495   3.36749   3.37166
 Alpha virt. eigenvalues --    3.37243   3.37533   3.37587   3.37897   3.37940
 Alpha virt. eigenvalues --    3.38403   3.38605   3.38975   3.39199   3.39214
 Alpha virt. eigenvalues --    3.39407   3.39640   3.40564   3.40663   3.40758
 Alpha virt. eigenvalues --    3.40919   3.41039   3.41135   3.41447   3.42164
 Alpha virt. eigenvalues --    3.42166   3.42673   3.42974   3.43306   3.43329
 Alpha virt. eigenvalues --    3.43482   3.43882   3.44173   3.44312   3.44397
 Alpha virt. eigenvalues --    3.44618   3.44906   3.45490   3.45655   3.45928
 Alpha virt. eigenvalues --    3.46092   3.46883   3.47286   3.47447   3.47655
 Alpha virt. eigenvalues --    3.47658   3.48002   3.48644   3.48681   3.48951
 Alpha virt. eigenvalues --    3.49291   3.49657   3.49674   3.49730   3.50787
 Alpha virt. eigenvalues --    3.51053   3.51167   3.51575   3.51641   3.52726
 Alpha virt. eigenvalues --    3.52757   3.53137   3.53645   3.53937   3.54842
 Alpha virt. eigenvalues --    3.55091   3.55544   3.56226   3.56444   3.57466
 Alpha virt. eigenvalues --    3.57764   3.58043   3.58196   3.58411   3.58603
 Alpha virt. eigenvalues --    3.58668   3.59226   3.59372   3.59923   3.60284
 Alpha virt. eigenvalues --    3.61225   3.61329   3.61498   3.61884   3.62492
 Alpha virt. eigenvalues --    3.62587   3.63641   3.63641   3.64042   3.64093
 Alpha virt. eigenvalues --    3.64401   3.64415   3.64844   3.65209   3.65343
 Alpha virt. eigenvalues --    3.65901   3.65971   3.66459   3.67099   3.67454
 Alpha virt. eigenvalues --    3.67544   3.68458   3.68714   3.69277   3.69400
 Alpha virt. eigenvalues --    3.69697   3.69744   3.70196   3.70428   3.70922
 Alpha virt. eigenvalues --    3.71240   3.71707   3.72440   3.72585   3.73695
 Alpha virt. eigenvalues --    3.73729   3.73827   3.74186   3.75102   3.75389
 Alpha virt. eigenvalues --    3.76614   3.76776   3.77827   3.78001   3.78654
 Alpha virt. eigenvalues --    3.78935   3.79148   3.80325   3.80466   3.80537
 Alpha virt. eigenvalues --    3.81127   3.81308   3.81744   3.82577   3.82930
 Alpha virt. eigenvalues --    3.83473   3.83610   3.83837   3.84411   3.84798
 Alpha virt. eigenvalues --    3.85021   3.85798   3.86285   3.86963   3.87718
 Alpha virt. eigenvalues --    3.88659   3.88924   3.89243   3.89669   3.91064
 Alpha virt. eigenvalues --    3.91152   3.91667   3.92303   3.92794   3.92909
 Alpha virt. eigenvalues --    3.93908   3.94576   3.94792   3.94890   3.94916
 Alpha virt. eigenvalues --    3.95894   3.95970   3.96470   3.97242   3.97578
 Alpha virt. eigenvalues --    3.97981   3.97986   3.98600   3.99147   3.99192
 Alpha virt. eigenvalues --    4.00071   4.00239   4.01376   4.01825   4.02858
 Alpha virt. eigenvalues --    4.03016   4.04522   4.04606   4.05647   4.05915
 Alpha virt. eigenvalues --    4.06402   4.06592   4.07263   4.07838   4.08003
 Alpha virt. eigenvalues --    4.08734   4.09617   4.09700   4.10494   4.10860
 Alpha virt. eigenvalues --    4.11189   4.11727   4.12251   4.13127   4.15409
 Alpha virt. eigenvalues --    4.15754   4.16347   4.16565   4.16706   4.17223
 Alpha virt. eigenvalues --    4.19589   4.19599   4.20759   4.20888   4.21857
 Alpha virt. eigenvalues --    4.22364   4.22369   4.22439   4.22579   4.23218
 Alpha virt. eigenvalues --    4.23973   4.24524   4.25169   4.26713   4.26950
 Alpha virt. eigenvalues --    4.27157   4.27992   4.28388   4.28720   4.29076
 Alpha virt. eigenvalues --    4.30190   4.31031   4.31628   4.31856   4.32151
 Alpha virt. eigenvalues --    4.32567   4.32845   4.33591   4.33785   4.34666
 Alpha virt. eigenvalues --    4.35491   4.35574   4.36590   4.36917   4.38094
 Alpha virt. eigenvalues --    4.38133   4.39150   4.39447   4.39591   4.40452
 Alpha virt. eigenvalues --    4.40916   4.41809   4.41931   4.42303   4.42672
 Alpha virt. eigenvalues --    4.42919   4.43732   4.43850   4.44702   4.45374
 Alpha virt. eigenvalues --    4.45493   4.45594   4.47030   4.47099   4.47295
 Alpha virt. eigenvalues --    4.48397   4.48735   4.49430   4.49620   4.50501
 Alpha virt. eigenvalues --    4.50667   4.50669   4.51360   4.51512   4.52955
 Alpha virt. eigenvalues --    4.54280   4.54493   4.54521   4.55034   4.55109
 Alpha virt. eigenvalues --    4.55247   4.55625   4.56565   4.56859   4.57099
 Alpha virt. eigenvalues --    4.58409   4.58793   4.59541   4.60238   4.60814
 Alpha virt. eigenvalues --    4.61087   4.61502   4.61974   4.62262   4.62987
 Alpha virt. eigenvalues --    4.64270   4.64589   4.66075   4.67291   4.68486
 Alpha virt. eigenvalues --    4.68704   4.70414   4.70478   4.71483   4.71638
 Alpha virt. eigenvalues --    4.72595   4.72685   4.74211   4.75196   4.75305
 Alpha virt. eigenvalues --    4.75627   4.77922   4.78985   4.79151   4.80137
 Alpha virt. eigenvalues --    4.80250   4.81213   4.81557   4.81591   4.81911
 Alpha virt. eigenvalues --    4.83258   4.84962   4.87318   4.87625   4.88968
 Alpha virt. eigenvalues --    4.89661   4.90169   4.90804   4.92854   4.93375
 Alpha virt. eigenvalues --    4.94427   4.96218   4.97776   4.98268   4.99314
 Alpha virt. eigenvalues --    5.00003   5.02255   5.04715   5.05208   5.05594
 Alpha virt. eigenvalues --    5.06312   5.07100   5.07364   5.08698   5.09772
 Alpha virt. eigenvalues --    5.10296   5.11038   5.11576   5.13483   5.16795
 Alpha virt. eigenvalues --    5.17183   5.19228   5.19286   5.20983   5.21350
 Alpha virt. eigenvalues --    5.22724   5.24903   5.25361   5.26699   5.26803
 Alpha virt. eigenvalues --    5.27271   5.28638   5.29390   5.30564   5.31216
 Alpha virt. eigenvalues --    5.32765   5.34177   5.38550   5.38568   5.40479
 Alpha virt. eigenvalues --    5.40979   5.42332   5.42808   5.48275   5.49943
 Alpha virt. eigenvalues --    5.59752   5.63670   5.69099   5.69507   5.76125
 Alpha virt. eigenvalues --    5.76635   5.77999   5.78797  22.43993  22.51678
 Alpha virt. eigenvalues --   22.51811  22.53312  22.53514  22.54637  22.54804
 Alpha virt. eigenvalues --   22.54895  22.57878  22.58061  22.62489  22.62556
 Alpha virt. eigenvalues --   22.65224  22.65392  22.65856  22.69101  22.69685
 Alpha virt. eigenvalues --   22.70945  22.71961  22.72444  22.73752  22.80789
 Alpha virt. eigenvalues --   22.82069  22.82707  22.83373  22.83701  22.88333
 Alpha virt. eigenvalues --   22.89764  22.91122  22.91706  22.92305  22.93615
 Alpha virt. eigenvalues --   22.97966  22.98793  23.15414  23.20472  23.25312
 Alpha virt. eigenvalues --   23.27151  23.44113  23.44117
          Condensed to atoms (all electrons):
 Mulliken charges:
               1
     1  C   -0.246419
     2  C   -0.213087
     3  C   -0.202477
     4  C    0.041083
     5  C   -0.153350
     6  C    0.203625
     7  C   -0.153993
     8  C   -0.245099
     9  C    0.050070
    10  C   -0.222345
    11  C   -0.130884
    12  C   -0.262410
    13  C    0.084793
    14  C   -0.193633
    15  C   -0.174308
    16  C   -0.174309
    17  C   -0.193633
    18  C    0.084792
    19  C   -0.262409
    20  C   -0.130885
    21  C   -0.222345
    22  C    0.050068
    23  C   -0.245098
    24  C   -0.153993
    25  C   -0.153351
    26  C    0.203626
    27  C   -0.442428
    28  C   -0.461994
    29  C   -0.453016
    30  C   -0.246419
    31  C   -0.213087
    32  C   -0.202477
    33  C    0.041083
    34  C   -0.442427
    35  C   -0.461995
    36  C   -0.453017
    37  C   -0.418743
    38  C   -0.417785
    39  C   -0.417785
    40  C   -0.418743
    41  H    0.111724
    42  H    0.126760
    43  H    0.121376
    44  H    0.110573
    45  H    0.129158
    46  H    0.137813
    47  H    0.162886
    48  H    0.155858
    49  H    0.148899
    50  H    0.169477
    51  H    0.152265
    52  H    0.153633
    53  H    0.150115
    54  H    0.150115
    55  H    0.153632
    56  H    0.152266
    57  H    0.169478
    58  H    0.148899
    59  H    0.155859
    60  H    0.162886
    61  H    0.137525
    62  H    0.137603
    63  H    0.134801
    64  H    0.137029
    65  H    0.135642
    66  H    0.135318
    67  H    0.153116
    68  H    0.149280
    69  H    0.158520
    70  H    0.126760
    71  H    0.111724
    72  H    0.121376
    73  H    0.110573
    74  H    0.129158
    75  H    0.137813
    76  H    0.137603
    77  H    0.134801
    78  H    0.137525
    79  H    0.137030
    80  H    0.135641
    81  H    0.135318
    82  H    0.153115
    83  H    0.149280
    84  H    0.158520
    85  H    0.150293
    86  H    0.150186
    87  H    0.150524
    88  H    0.150915
    89  H    0.150256
    90  H    0.150856
    91  H    0.150855
    92  H    0.150916
    93  H    0.150256
    94  H    0.150187
    95  H    0.150524
    96  H    0.150293
 Sum of Mulliken charges =  -0.00000
 Mulliken charges with hydrogens summed into heavy atoms:
               1
     1  C   -0.007935
     2  C    0.018862
     3  C    0.064494
     4  C    0.041083
     5  C   -0.153350
     6  C    0.203625
     7  C    0.008893
     8  C   -0.089241
     9  C    0.050070
    10  C   -0.073446
    11  C    0.038593
    12  C   -0.110144
    13  C    0.084793
    14  C   -0.040001
    15  C   -0.024193
    16  C   -0.024194
    17  C   -0.040001
    18  C    0.084792
    19  C   -0.110144
    20  C    0.038593
    21  C   -0.073445
    22  C    0.050068
    23  C   -0.089240
    24  C    0.008893
    25  C   -0.153351
    26  C    0.203626
    27  C   -0.032499
    28  C   -0.054005
    29  C    0.007900
    30  C   -0.007935
    31  C    0.018862
    32  C    0.064494
    33  C    0.041083
    34  C   -0.032498
    35  C   -0.054006
    36  C    0.007899
    37  C    0.032260
    38  C    0.034242
    39  C    0.034242
    40  C    0.032260
 Electronic spatial extent (au):  <R**2>=         104482.2665
 Charge=             -0.0000 electrons
 Dipole moment (field-independent basis, Debye):
    X=              0.0000    Y=             -0.0000    Z=             -0.5300  Tot=              0.5300
 Quadrupole moment (field-independent basis, Debye-Ang):
   XX=           -153.2520   YY=           -224.6740   ZZ=           -261.9860
   XY=            -16.2442   XZ=             -0.0002   YZ=              0.0000
 Traceless Quadrupole moment (field-independent basis, Debye-Ang):
   XX=             60.0520   YY=            -11.3700   ZZ=            -48.6820
   XY=            -16.2442   XZ=             -0.0002   YZ=              0.0000
 Octapole moment (field-independent basis, Debye-Ang**2):
  XXX=              0.0059  YYY=              0.0002  ZZZ=             -7.1375  XYY=              0.0002
  XXY=             -0.0005  XXZ=            -94.3510  XZZ=              0.0001  YZZ=             -0.0000
  YYZ=              0.3893  XYZ=             12.4133
 Hexadecapole moment (field-independent basis, Debye-Ang**3):
 XXXX=        -114910.3659 YYYY=          -3989.6123 ZZZZ=           -841.4695 XXXY=          -2070.6978
 XXXZ=             -0.0356 YYYX=           -231.2807 YYYZ=             -0.0000 ZZZX=             -0.0016
 ZZZY=             -0.0000 XXYY=         -22749.3535 XXZZ=         -24292.8186 YYZZ=           -832.2501
 XXYZ=              0.0041 YYXZ=              0.0001 ZZXY=            -31.7294
 N-N= 3.637072502045D+03 E-N=-1.088370951963D+04  KE= 1.548491995284D+03
 Unable to Open any file for archive entry.
 1\1\GINC-CN04\SP\RwB97XD TD-FC\def2TZVP\C40H56\2100011873\06-Nov-2023\
 0\\# td=(nstates=150) wB97XD/def2TZVP scrf(smd, solvent=ethanol)\\B-1\
 \0,1\C,0,-13.193247,-1.96518,0.357514\C,0,-14.150234,-1.366297,-0.6668
 37\C,0,-14.19793,0.145886,-0.469985\C,0,-12.839886,0.781119,-0.265942\
 C,0,-11.699193,0.069117,-0.020535\C,0,-11.734254,-1.463294,0.19794\C,0
 ,-10.43464,0.808638,0.027915\C,0,-9.147698,0.368486,0.051934\C,0,-7.97
 0978,1.218813,0.064023\C,0,-6.738479,0.618773,0.069992\C,0,-5.445845,1
 .238015,0.078209\C,0,-4.280328,0.525977,0.08121\C,0,-2.942601,1.063627
 ,0.086009\C,0,-1.885522,0.185039,0.0869\C,0,-0.488362,0.47987,0.088382
 \C,0,0.488364,-0.479879,0.088381\C,0,1.885523,-0.185049,0.086901\C,0,2
 .942603,-1.063636,0.08601\C,0,4.28033,-0.525984,0.08121\C,0,5.445847,-
 1.238022,0.078205\C,0,6.73848,-0.618778,0.069986\C,0,7.97098,-1.218816
 ,0.064016\C,0,9.147699,-0.368486,0.051926\C,0,10.434641,-0.808636,0.02
 7911\C,0,11.699193,-0.069112,-0.020539\C,0,11.734248,1.463299,0.197935
 \C,0,-11.0146,-1.853868,1.513234\C,0,-11.087577,-2.209256,-0.996377\C,
 0,-12.878927,2.293643,-0.398885\C,0,13.193238,1.965187,0.357525\C,0,14
 .150237,1.366308,-0.666817\C,0,14.197934,-0.145875,-0.469969\C,0,12.83
 9889,-0.781111,-0.265939\C,0,11.014576,1.85387,1.51322\C,0,11.087582,2
 .209257,-0.996389\C,0,12.878932,-2.293635,-0.398883\C,0,8.156563,-2.71
 718,0.068498\C,0,2.769507,-2.564242,0.088788\C,0,-2.769504,2.564233,0.
 08879\C,0,-8.156557,2.717177,0.068503\H,0,-13.55224,-1.704444,1.363722
 \H,0,-13.191791,-3.061587,0.302962\H,0,-15.153148,-1.798268,-0.563053\
 H,0,-13.813091,-1.597755,-1.685187\H,0,-14.836732,0.392637,0.395545\H,
 0,-14.68517,0.631298,-1.328645\H,0,-10.553209,1.886254,-0.000126\H,0,-
 8.931571,-0.694424,0.048253\H,0,-6.727188,-0.472294,0.066595\H,0,-5.39
 419,2.323329,0.080545\H,0,-4.354073,-0.562407,0.078511\H,0,-2.136434,-
 0.876729,0.085263\H,0,-0.172471,1.5217,0.088524\H,0,0.172472,-1.521709
 ,0.088521\H,0,2.136435,0.87672,0.085267\H,0,4.354074,0.5624,0.078514\H
 ,0,5.394193,-2.323335,0.080538\H,0,6.727188,0.472289,0.066588\H,0,8.93
 1568,0.694423,0.04824\H,0,10.553213,-1.886252,-0.000123\H,0,-11.41656,
 -1.280584,2.356412\H,0,-11.183965,-2.918133,1.720013\H,0,-9.93616,-1.6
 90871,1.488587\H,0,-10.062275,-1.88498,-1.187807\H,0,-11.067226,-3.288
 779,-0.800274\H,0,-11.653135,-2.045583,-1.919919\H,0,-13.913764,2.6489
 6,-0.350635\H,0,-12.32451,2.809583,0.392139\H,0,-12.468777,2.633235,-1
 .360075\H,0,13.19178,3.061594,0.302976\H,0,13.552222,1.70445,1.363737\
 H,0,15.153149,1.798281,-0.563022\H,0,13.813104,1.597768,-1.68517\H,0,1
 4.836727,-0.392627,0.395567\H,0,14.685183,-0.631285,-1.328625\H,0,11.1
 83932,2.918136,1.719999\H,0,9.936137,1.690867,1.488558\H,0,11.416527,1
 .280589,2.356403\H,0,10.062283,1.884978,-1.18783\H,0,11.067226,3.28878
 1,-0.800288\H,0,11.65315,2.045585,-1.919926\H,0,13.913771,-2.648951,-0
 .350639\H,0,12.324521,-2.809577,0.392144\H,0,12.468777,-2.633229,-1.36
 0071\H,0,8.744087,-3.036457,0.93873\H,0,7.209146,-3.257946,0.093047\H,
 0,8.704221,-3.047232,-0.823677\H,0,3.248036,-3.011075,0.969534\H,0,1.7
 2147,-2.868026,0.092705\H,0,3.242385,-3.013831,-0.793611\H,0,-3.242396
 ,3.013825,-0.7936\H,0,-3.248019,3.011063,0.969546\H,0,-1.721466,2.8680
 16,0.092692\H,0,-7.20914,3.257941,0.093061\H,0,-8.704208,3.04723,-0.82
 3677\H,0,-8.744089,3.036455,0.93873\\Version=ES64L-G16RevC.02\State=1-
 A\HF=-1557.9651094\RMSD=9.649e-09\PG=C01 [X(C40H56)]\\@
 The archive entry for this job was punched.


 THE MOST BEAUTIFUL EXPERIENCE WE CAN HAVE IS THE MYSTERIOUS.
 IT IS THE FUNDAMENTAL EMOTION WHICH STANDS AT AT THE CRADLE 
 OF TRUE ART AND TRUE SCIENCE.

                                    -- ALBERT EINSTEIN
 Job cpu time:       8 days 20 hours 32 minutes 37.4 seconds.
 Elapsed time:       0 days  6 hours 23 minutes 14.6 seconds.
 File lengths (MBytes):  RWF=  94400 Int=      0 D2E=      0 Chk=  10128 Scr=     32
 Normal termination of Gaussian 16 at Mon Nov  6 06:58:43 2023.
