 Entering Gaussian System, Link 0=g16
 Initial command:
 /nfs-share/home/2100011873/Gaussian16_AVX2/g16/l1.exe "/nfs-share/home/2100011873/GaussTmp/Gau-16175.inp" -scrdir="/nfs-share/home/2100011873/GaussTmp/"
 Entering Link 1 = /nfs-share/home/2100011873/Gaussian16_AVX2/g16/l1.exe PID=     16176.
  
 Copyright (c) 1988-2021, Gaussian, Inc.  All Rights Reserved.
  
 This is part of the Gaussian(R) 16 program.  It is based on
 the Gaussian(R) 09 system (copyright 2009, Gaussian, Inc.),
 the Gaussian(R) 03 system (copyright 2003, Gaussian, Inc.),
 the Gaussian(R) 98 system (copyright 1998, Gaussian, Inc.),
 the Gaussian(R) 94 system (copyright 1995, Gaussian, Inc.),
 the Gaussian 92(TM) system (copyright 1992, Gaussian, Inc.),
 the Gaussian 90(TM) system (copyright 1990, Gaussian, Inc.),
 the Gaussian 88(TM) system (copyright 1988, Gaussian, Inc.),
 the Gaussian 86(TM) system (copyright 1986, Carnegie Mellon
 University), and the Gaussian 82(TM) system (copyright 1983,
 Carnegie Mellon University). Gaussian is a federally registered
 trademark of Gaussian, Inc.
  
 This software contains proprietary and confidential information,
 including trade secrets, belonging to Gaussian, Inc.
  
 This software is provided under written license and may be
 used, copied, transmitted, or stored only in accord with that
 written license.
  
 The following legend is applicable only to US Government
 contracts under FAR:
  
                    RESTRICTED RIGHTS LEGEND
  
 Use, reproduction and disclosure by the US Government is
 subject to restrictions as set forth in subparagraphs (a)
 and (c) of the Commercial Computer Software - Restricted
 Rights clause in FAR 52.227-19.
  
 Gaussian, Inc.
 340 Quinnipiac St., Bldg. 40, Wallingford CT 06492
  
  
 ---------------------------------------------------------------
 Warning -- This program may not be used in any manner that
 competes with the business of Gaussian, Inc. or will provide
 assistance to any competitor of Gaussian, Inc.  The licensee
 of this program is prohibited from giving any competitor of
 Gaussian, Inc. access to this program.  By using this program,
 the user acknowledges that Gaussian, Inc. is engaged in the
 business of creating and licensing software in the field of
 computational chemistry and represents and warrants to the
 licensee that it is not a competitor of Gaussian, Inc. and that
 it will not use this program in any manner prohibited above.
 ---------------------------------------------------------------
  

 Cite this work as:
 Gaussian 16, Revision C.02,
 M. J. Frisch, G. W. Trucks, H. B. Schlegel, G. E. Scuseria, 
 M. A. Robb, J. R. Cheeseman, G. Scalmani, V. Barone, 
 G. A. Petersson, H. Nakatsuji, X. Li, M. Caricato, A. V. Marenich, 
 J. Bloino, B. G. Janesko, R. Gomperts, B. Mennucci, H. P. Hratchian, 
 J. V. Ortiz, A. F. Izmaylov, J. L. Sonnenberg, D. Williams-Young, 
 F. Ding, F. Lipparini, F. Egidi, J. Goings, B. Peng, A. Petrone, 
 T. Henderson, D. Ranasinghe, V. G. Zakrzewski, J. Gao, N. Rega, 
 G. Zheng, W. Liang, M. Hada, M. Ehara, K. Toyota, R. Fukuda, 
 J. Hasegawa, M. Ishida, T. Nakajima, Y. Honda, O. Kitao, H. Nakai, 
 T. Vreven, K. Throssell, J. A. Montgomery, Jr., J. E. Peralta, 
 F. Ogliaro, M. J. Bearpark, J. J. Heyd, E. N. Brothers, K. N. Kudin, 
 V. N. Staroverov, T. A. Keith, R. Kobayashi, J. Normand, 
 K. Raghavachari, A. P. Rendell, J. C. Burant, S. S. Iyengar, 
 J. Tomasi, M. Cossi, J. M. Millam, M. Klene, C. Adamo, R. Cammi, 
 J. W. Ochterski, R. L. Martin, K. Morokuma, O. Farkas, 
 J. B. Foresman, and D. J. Fox, Gaussian, Inc., Wallingford CT, 2019.
 
 ******************************************
 Gaussian 16:  ES64L-G16RevC.02  7-Dec-2021
                 5-Nov-2023 
 ******************************************
 %nprocshared=36
 Will use up to   36 processors via shared memory.
 %mem=128GB
 ----------------------------------------------------------------------
 # td=(nstates=150) PBEPBE/def2TZVP IOp(3/76=1000003750) IOp(3/77=06250
 06250) IOp(3/78=1000010000) scrf(smd, solvent=ethanol)
 ----------------------------------------------------------------------
 1/38=1,172=1/1;
 2/12=2,17=6,18=5,40=1/2;
 3/5=44,7=101,11=9,25=1,30=1,70=32201,72=4,74=1009,76=1000003750,77=625006250,78=1000010000/1,2,3,8;
 4//1;
 5/5=2,38=5,53=4/2;
 8/6=1,10=1,108=150/1;
 9/41=150,42=1,70=2/14;
 6/7=2,8=2,9=2,10=2/1;
 99/5=1,9=1/99;
 ---
 A-2
 ---
 Symbolic Z-matrix:
 Charge =  1 Multiplicity = 1
 C                     1.18593   1.12419   0.25907 
 C                    -0.06404   0.51889   0.18474 
 C                    -1.25506   1.23243   0.20607 
 C                    -2.57691   0.77597   0.13437 
 C                     2.39263   0.43147   0.17128 
 S                    -3.82767   1.97001  -0.18708 
 C                    -5.07788   0.74479  -0.13478 
 C                    -4.5092   -0.50864   0.11385 
 N                    -3.11837  -0.45818   0.27972 
 S                     2.5052   -1.30012  -0.12511 
 C                     4.26032  -1.22576  -0.10255 
 C                     4.68878   0.08701   0.11942 
 N                     3.62751   0.98166   0.28741 
 C                     5.15932  -2.26746  -0.2795 
 C                     6.51791  -1.9736   -0.23726 
 C                     6.95394  -0.66384  -0.02533 
 C                     6.05157   0.37821   0.15346 
 C                    -6.4468    0.90418  -0.30422 
 C                    -7.25123  -0.22611  -0.22641 
 C                    -6.68975  -1.48249   0.01487 
 C                    -5.32005  -1.6405    0.18625 
 C                     3.84714   2.41567   0.55458 
 C                     3.91176   3.24964  -0.71763 
 C                    -2.36937  -1.66031   0.69242 
 C                    -1.91885  -2.52299  -0.47911 
 H                     1.22885   2.1992    0.37656 
 H                    -0.09664  -0.55695   0.07224 
 H                    -1.16519   2.31437   0.2242 
 H                     4.81396  -3.27995  -0.44835 
 H                     7.24042  -2.76872  -0.37396 
 H                     8.01554  -0.44971  -0.00207 
 H                     6.40682   1.38809   0.30607 
 H                    -6.87574   1.88074  -0.49123 
 H                    -8.32188  -0.12916  -0.35743 
 H                    -7.33033  -2.35428   0.06736 
 H                    -4.90197  -2.62169   0.36374 
 H                     3.04859   2.7543    1.21217 
 H                     4.77271   2.49485   1.12204 
 H                     4.08254   4.2955   -0.45252 
 H                     4.72891   2.92447  -1.36454 
 H                     2.9782    3.18722  -1.27998 
 H                    -1.53167  -1.32932   1.3026 
 H                    -3.02767  -2.2247    1.35177 
 H                    -1.2761   -1.97256  -1.16835 
 H                    -1.35915  -3.37917  -0.09602 
 H                    -2.77567  -2.8996   -1.0408 
 
                          Input orientation:                          
 ---------------------------------------------------------------------
 Center     Atomic      Atomic             Coordinates (Angstroms)
 Number     Number       Type             X           Y           Z
 ---------------------------------------------------------------------
      1          6           0        1.185932    1.124188    0.259065
      2          6           0       -0.064042    0.518894    0.184736
      3          6           0       -1.255062    1.232433    0.206071
      4          6           0       -2.576908    0.775971    0.134368
      5          6           0        2.392634    0.431471    0.171283
      6         16           0       -3.827667    1.970009   -0.187075
      7          6           0       -5.077877    0.744792   -0.134775
      8          6           0       -4.509195   -0.508640    0.113846
      9          7           0       -3.118372   -0.458179    0.279721
     10         16           0        2.505198   -1.300121   -0.125106
     11          6           0        4.260315   -1.225762   -0.102553
     12          6           0        4.688784    0.087010    0.119416
     13          7           0        3.627512    0.981655    0.287411
     14          6           0        5.159317   -2.267461   -0.279503
     15          6           0        6.517913   -1.973596   -0.237257
     16          6           0        6.953940   -0.663841   -0.025333
     17          6           0        6.051566    0.378213    0.153458
     18          6           0       -6.446804    0.904176   -0.304215
     19          6           0       -7.251229   -0.226106   -0.226408
     20          6           0       -6.689747   -1.482485    0.014868
     21          6           0       -5.320051   -1.640504    0.186250
     22          6           0        3.847144    2.415669    0.554580
     23          6           0        3.911762    3.249637   -0.717632
     24          6           0       -2.369369   -1.660308    0.692423
     25          6           0       -1.918854   -2.522991   -0.479110
     26          1           0        1.228852    2.199196    0.376562
     27          1           0       -0.096636   -0.556945    0.072235
     28          1           0       -1.165193    2.314370    0.224199
     29          1           0        4.813961   -3.279951   -0.448352
     30          1           0        7.240415   -2.768718   -0.373960
     31          1           0        8.015538   -0.449707   -0.002068
     32          1           0        6.406822    1.388085    0.306065
     33          1           0       -6.875736    1.880738   -0.491225
     34          1           0       -8.321880   -0.129159   -0.357431
     35          1           0       -7.330326   -2.354283    0.067360
     36          1           0       -4.901973   -2.621689    0.363736
     37          1           0        3.048585    2.754296    1.212168
     38          1           0        4.772710    2.494849    1.122044
     39          1           0        4.082538    4.295496   -0.452515
     40          1           0        4.728911    2.924468   -1.364544
     41          1           0        2.978199    3.187215   -1.279982
     42          1           0       -1.531667   -1.329317    1.302601
     43          1           0       -3.027666   -2.224702    1.351768
     44          1           0       -1.276100   -1.972556   -1.168349
     45          1           0       -1.359149   -3.379171   -0.096017
     46          1           0       -2.775672   -2.899604   -1.040801
 ---------------------------------------------------------------------
                    Distance matrix (angstroms):
                    1          2          3          4          5
     1  C    0.000000
     2  C    1.390806   0.000000
     3  C    2.443967   1.388568   0.000000
     4  C    3.780975   2.526484   1.400277   0.000000
     5  C    1.394164   2.458268   3.734761   4.981605   0.000000
     6  S    5.103982   4.050784   2.704973   1.758821   6.417762
     7  C    6.287635   5.029081   3.868835   2.515603   7.483340
     8  C    5.926355   4.562920   3.691778   2.320427   6.965799
     9  N    4.585994   3.208212   2.517045   1.355521   5.583406
    10  S    2.786633   3.163196   4.545664   5.495934   1.760377
    11  C    3.886498   4.671876   6.046268   7.128161   2.511900
    12  C    3.655846   4.772855   6.053826   7.298299   2.322423
    13  N    2.445901   3.721863   4.889687   6.209715   1.356876
    14  C    5.251774   5.938246   7.323203   8.323638   3.891269
    15  C    6.186487   7.050725   8.419875   9.508627   4.792617
    16  C    6.045481   7.120047   8.428352   9.640313   4.695091
    17  C    4.923619   6.117306   7.356580   8.637658   3.659363
    18  C    7.656654   6.413047   5.227077   3.896779   8.864830
    19  C    8.558310   7.237384   6.186145   4.794121   9.674433
    20  C    8.299440   6.923463   6.078087   4.693650   9.283175
    21  C    7.069416   5.682309   4.977780   3.656074   7.986164
    22  C    2.972760   4.362558   5.249192   6.643315   2.489891
    23  C    3.591882   4.906959   5.623025   6.996268   3.322646
    24  C    4.536671   3.212662   3.137861   2.507978   5.227217
    25  C    4.846289   3.624098   3.874700   3.419436   5.266952
    26  H    1.082261   2.128799   2.670866   4.070385   2.126354
    27  H    2.122756   1.082196   2.135822   2.816429   2.680157
    28  H    2.635439   2.106615   1.085814   2.089900   4.025698
    29  H    5.749737   6.215057   7.590976   8.450740   4.474531
    30  H    7.225801   8.029672   9.408442  10.450026   5.834336
    31  H    7.013477   8.139576   9.424274  10.663996   5.694170
    32  H    5.227767   6.530107   7.664117   9.006196   4.128799
    33  H    8.131777   6.979306   5.700745   4.482388   9.404359
    34  H    9.609861   8.300952   7.218822   5.836594  10.742190
    35  H    9.201259   7.814589   7.056388   5.691921  10.114701
    36  H    7.148786   5.770691   5.308397   4.123425   7.910127
    37  H    2.652383   3.967504   4.674364   6.059834   2.628541
    38  H    3.935533   5.308212   6.226294   7.612288   3.290325
    39  H    4.353604   5.644726   6.189189   7.555111   4.263284
    40  H    4.292996   5.582065   6.413871   7.761299   3.745930
    41  H    3.136394   4.303553   4.893876   6.218818   3.169098
    42  H    3.807098   2.611404   2.800259   2.624792   4.447515
    43  H    5.492128   4.203849   4.050497   3.269447   6.150484
    44  H    4.205822   3.083382   3.487324   3.308107   4.586237
    45  H    5.184955   4.117163   4.622660   4.336037   5.354280
    46  H    5.794382   4.532219   4.576098   3.863985   6.267104
                    6          7          8          9         10
     6  S    0.000000
     7  C    1.751262   0.000000
     8  C    2.588191   1.398679   0.000000
     9  N    2.572371   2.336366   1.401588   0.000000
    10  S    7.127606   7.853966   7.062949   5.700640   0.000000
    11  C    8.696870   9.543896   8.801443   7.428347   1.756836
    12  C    8.727517   9.792086   9.217247   7.827810   2.598456
    13  N    7.535362   8.718838   8.273881   6.897835   2.576094
    14  C    9.936326  10.672149   9.835055   8.491547   2.829122
    15  C   11.071837  11.910604  11.129532   9.768405   4.070384
    16  C   11.099837  12.114489  11.465030  10.079029   4.495121
    17  C   10.012443  11.139208  10.598007   9.208868   3.933336
    18  C    2.830124   1.388551   2.434164   3.643549   9.221136
    19  C    4.067585   2.382121   2.777472   4.170196   9.815887
    20  C    4.489098   2.753413   2.390184   3.724791   9.197818
    21  C    3.924587   2.418955   1.394219   2.500804   7.838834
    22  C    7.723431   9.106209   8.864211   7.540090   4.008726
    23  C    7.862423   9.350272   9.258970   8.010331   4.798938
    24  C    4.009907   3.715478   2.497988   1.475277   4.955753
    25  C    4.890389   4.558113   3.334527   2.505617   4.603582
    26  H    5.092995   6.492425   6.350321   5.096016   3.758450
    27  H    4.513683   5.152682   4.413020   3.030461   2.713078
    28  H    2.715971   4.231020   4.377661   3.391905   5.163170
    29  H   10.114746  10.683883   9.742560   8.450704   3.058529
    30  H   12.041300  12.811802  11.974942  10.633455   4.963969
    31  H   12.089283  13.148458  12.525408  11.137479   5.576934
    32  H   10.262874  11.511146  11.081243   9.702510   4.757629
    33  H    3.064507   2.156323   3.416980   4.492513   9.912307
    34  H    4.963212   3.367035   3.860398   5.252686  10.892692
    35  H    5.570714   3.836489   3.371548   4.623945   9.893727
    36  H    4.747759   3.407734   2.163723   2.805186   7.540006
    37  H    7.060866   8.478900   8.305005   7.015755   4.303704
    38  H    8.715259  10.083470   9.807710   8.467530   4.593342
    39  H    8.249224   9.829632   9.859937   8.659486   5.822897
    40  H    8.689790  10.121087   9.965665   8.702055   4.932368
    41  H    6.999703   8.495722   8.465410   7.272534   4.657645
    42  H    4.286759   4.352423   3.309429   2.079134   4.281995
    43  H    4.539123   3.902700   2.583069   2.068361   5.800741
    44  H    4.797626   4.785997   3.773589   2.790020   3.979791
    45  H    5.891995   5.553153   4.266940   3.430487   4.388220
    46  H    5.054569   4.404844   3.170965   2.796744   5.593249
                   11         12         13         14         15
    11  C    0.000000
    12  C    1.398652   0.000000
    13  N    2.329206   1.398181   0.000000
    14  C    1.387319   2.433942   3.636561   0.000000
    15  C    2.382047   2.778313   4.166918   1.390656   0.000000
    16  C    2.752696   2.390745   3.724324   2.420097   1.396599
    17  C    2.418028   1.393963   2.501624   2.825448   2.429227
    18  C   10.918777  11.173564  10.091970  12.031705  13.280435
    19  C   11.555531  11.949123  10.957632  12.577424  13.879593
    20  C   10.953700  11.486741  10.610942  11.878685  13.219192
    21  C    9.593687  10.157044   9.324421  10.508433  11.850219
    22  C    3.723245   2.514036   1.475132   4.934491   5.198621
    23  C    4.530895   3.362532   2.496928   5.673334   5.857042
    24  C    6.691302   7.293763   6.565561   7.615405   8.941266
    25  C    6.325087   7.129602   6.605473   7.085594   8.458095
    26  H    4.598876   4.061845   2.691454   5.985817   6.764845
    27  H    4.411450   4.828783   4.035204   5.538468   6.771628
    28  H    6.486558   6.264276   4.974952   7.826003   8.810772
    29  H    2.155410   3.416790   4.484450   1.083013   2.157447
    30  H    3.366804   3.861272   5.249360   2.142697   1.083012
    31  H    3.835891   3.371960   4.624648   3.396940   2.149519
    32  H    3.406854   2.163166   2.808932   3.906683   3.407116
    33  H   11.567759  11.718723  10.570376  12.731649  13.939520
    34  H   12.632463  13.021194  12.018224  13.649948  14.954459
    35  H   11.646690  12.264649  11.456488  12.494760  13.856819
    36  H    9.279739   9.968920   9.259699  10.088052  11.454039
    37  H    4.363215   3.316440   2.081487   5.647859   6.040698
    38  H    3.950333   2.609597   2.073125   4.979297   4.986024
    39  H    5.535194   4.290221   3.425796   6.652954   6.728960
    40  H    4.363097   3.202330   2.777869   5.321531   5.335010
    41  H    4.743894   3.807320   2.782593   5.959171   6.344353
    42  H    5.960892   6.488445   5.743547   6.939195   8.220827
    43  H    7.498506   8.149006   7.463577   8.348028   9.680193
    44  H    5.687312   6.440496   5.906946   6.503200   7.849431
    45  H    6.017939   6.974118   6.635556   6.615132   8.002731
    46  H    7.292953   8.123058   7.604544   7.996451   9.374108
                   16         17         18         19         20
    16  C    0.000000
    17  C    1.390008   0.000000
    18  C   13.495051  12.517801   0.000000
    19  C   14.213334  13.321931   1.389493   0.000000
    20  C   13.668284  12.877207   2.420121   1.397127   0.000000
    21  C   12.314605  11.549457   2.825867   2.429044   1.389392
    22  C    4.412693   3.028465  10.439708  11.435156  11.247798
    23  C    5.004941   3.685463  10.628828  11.701900  11.632778
    24  C    9.403840   8.680910   4.918876   5.170468   4.376799
    25  C    9.076829   8.505570   5.681408   5.811520   4.907962
    26  H    6.413668   5.159876   7.813849   8.840669   8.740126
    27  H    7.052061   6.219446   6.526961   7.168462   6.658005
    28  H    8.651724   7.472303   5.492111   6.610363   6.706760
    29  H    3.406242   3.908453  12.013847  12.447652  11.652500
    30  H    2.152700   3.405100  14.171626  14.713748  13.994820
    31  H    1.083229   2.137013  14.528717  15.270052  14.741517
    32  H    2.149317   1.081359  12.877201  13.763412  13.410633
    33  H   14.069537  13.030285   1.082880   2.156366   3.406170
    34  H   15.288782  14.391469   2.141617   1.082986   2.152663
    35  H   14.384243  13.658293   3.396503   2.149812   1.083111
    36  H   12.022779  11.358858   3.906966   3.406771   2.148402
    37  H    5.335435   3.972975   9.792077  10.818432  10.687327
    38  H    4.006440   2.655895  11.421119  12.401493  12.183306
    39  H    5.746517   4.425989  11.063005  12.204519  12.232973
    40  H    4.429470   3.246099  11.406248  12.439663  12.317052
    41  H    5.675499   4.403502   9.746541  10.835219  10.814431
    42  H    8.614627   7.857583   5.632843   6.022320   5.318600
    43  H   10.196330   9.520692   4.921652   4.931887   3.968504
    44  H    8.411467   7.808199   5.979841   6.295991   5.563070
    45  H    8.745597   8.312573   6.653919   6.683968   5.659062
    46  H   10.034698   9.491600   5.337463   5.276499   4.294490
                   21         22         23         24         25
    21  C    0.000000
    22  C   10.031235   0.000000
    23  C   10.486031   1.522564   0.000000
    24  C    2.993848   7.434892   8.096198   0.000000
    25  C    3.576259   7.661959   8.208301   1.523048   0.000000
    26  H    7.593922   2.633250   3.081995   5.286089   5.739275
    27  H    5.335838   4.962106   5.584014   2.601415   2.736749
    28  H    5.736315   5.024235   5.247594   4.179395   4.945979
    29  H   10.285364   5.863505   6.597120   7.451499   6.775303
    30  H   12.623471   6.265329   6.886119   9.732096   9.163168
    31  H   13.389974   5.088786   5.571190  10.478271  10.159637
    32  H   12.112236   2.769411   3.276989   9.298575   9.232004
    33  H    3.908743  10.787030  10.876362   5.852126   6.630509
    34  H    3.404516  12.465675  12.696771   6.235303   6.836957
    35  H    2.136544  12.162469  12.585892   5.048108   5.441610
    36  H    1.081210  10.097447  10.645363   2.728804   3.101472
    37  H    9.507936   1.088479   2.171305   7.008073   7.442152
    38  H   10.947177   1.088557   2.166874   8.274007   8.515835
    39  H   11.137899   2.145554   1.092370   8.854919   9.083456
    40  H   11.145652   2.172424   1.091770   8.696946   8.640115
    41  H    9.711728   2.171628   1.091638   7.482335   7.564984
    42  H    3.961683   6.596671   7.394530   1.087942   2.179281
    43  H    2.637186   8.332560   9.077801   1.089326   2.161147
    44  H    4.277702   6.962229   7.374846   2.180644   1.091404
    45  H    4.334903   7.817220   8.491761   2.143985   1.092279
    46  H    3.092709   8.640547   9.090620   2.169102   1.091545
                   26         27         28         29         30
    26  H    0.000000
    27  H    3.073410   0.000000
    28  H    2.401652   3.067468   0.000000
    29  H    6.599586   5.639125   8.215780   0.000000
    30  H    7.834688   7.676154   9.841231   2.480841   0.000000
    31  H    7.295146   8.113223   9.590471   4.296457   2.473243
    32  H    5.241588   6.792112   7.628900   4.989680   4.293754
    33  H    8.157133   7.226063   5.771496  12.778246  14.862601
    34  H    9.857812   8.247560   7.584675  13.508741  15.784567
    35  H    9.699964   7.453638   7.734972  12.190428  14.583313
    36  H    7.799238   5.238263   6.192550   9.772009  12.165665
    37  H    2.077932   4.707035   4.350350   6.502770   7.112730
    38  H    3.633467   5.841753   6.008110   5.984660   6.002727
    39  H    3.636670   6.425499   5.649910   7.610676   7.738312
    40  H    3.975913   6.121313   6.134883   6.272277   6.300895
    41  H    2.603946   5.030093   4.493564   6.773911   7.379736
    42  H    4.574759   2.041978   3.817553   6.865698   9.046113
    43  H    6.216096   3.606876   5.034222   8.114499  10.426293
    44  H    5.105394   2.221292   4.508794   6.270289   8.590457
    45  H    6.167597   3.096322   5.705836   6.183953   8.625683
    46  H    6.636482   3.728825   5.601731   7.622217  10.039114
                   31         32         33         34         35
    31  H    0.000000
    32  H    2.461786   0.000000
    33  H   15.080461  13.315582   0.000000
    34  H   16.344426  14.821502   2.479701   0.000000
    35  H   15.463757  14.239787   4.295820   2.472813   0.000000
    36  H   13.103946  11.998769   4.989844   4.292849   2.460944
    37  H    6.034122   3.737019  10.107265  11.834924  11.624541
    38  H    4.522164   2.135666  11.775656  13.436612  13.080899
    39  H    6.179672   3.798786  11.221244  13.170277  13.219050
    40  H    4.903398   2.822551  11.684173  13.441059  13.241630
    41  H    6.343110   4.184241   9.971412  11.812757  11.780884
    42  H    9.676001   8.449672   6.487013   7.092466   6.016712
    43  H   11.266580  10.156539   5.921056   5.944860   4.492146
    44  H    9.487561   8.514405   6.830981   7.327941   6.190827
    45  H    9.822186   9.121332   7.632533   7.688338   6.060697
    46  H   11.114458  10.223332   6.321727   6.237210   4.719139
                   36         37         38         39         40
    36  H    0.000000
    37  H    9.634958   0.000000
    38  H   10.970574   1.745864   0.000000
    39  H   11.368164   2.493096   2.489559   0.000000
    40  H   11.247255   3.080893   2.523809   1.768986   0.000000
    41  H    9.926847   2.530451   3.077234   1.769902   1.772337
    42  H    3.729699   6.137001   7.375772   8.138689   8.025160
    43  H    2.155651   7.856891   9.119912   9.814450   9.698288
    44  H    3.989438   6.834683   7.860770   8.277433   7.751096
    45  H    3.651952   7.665434   8.578314   9.414859   8.854914
    46  H    2.563419   8.424038   9.526599   9.957439   9.504914
                   41         42         43         44         45
    41  H    0.000000
    42  H    6.885324   0.000000
    43  H    8.502080   1.744175   0.000000
    44  H    6.688405   2.566060   3.079375   0.000000
    45  H    7.958127   2.487528   2.492555   1.770694   0.000000
    46  H    8.379356   3.082999   2.498676   1.767598   1.768937
                   46
    46  H    0.000000
 Stoichiometry    C21H21N2S2(1+)
 Framework group  C1[X(C21H21N2S2)]
 Deg. of freedom   132
 Full point group                 C1      NOp   1
 Largest Abelian subgroup         C1      NOp   1
 Largest concise Abelian subgroup C1      NOp   1
                         Standard orientation:                         
 ---------------------------------------------------------------------
 Center     Atomic      Atomic             Coordinates (Angstroms)
 Number     Number       Type             X           Y           Z
 ---------------------------------------------------------------------
      1          6           0        1.185932    1.124188    0.259065
      2          6           0       -0.064042    0.518894    0.184736
      3          6           0       -1.255062    1.232433    0.206071
      4          6           0       -2.576908    0.775971    0.134368
      5          6           0        2.392634    0.431471    0.171283
      6         16           0       -3.827667    1.970009   -0.187075
      7          6           0       -5.077877    0.744792   -0.134775
      8          6           0       -4.509195   -0.508640    0.113846
      9          7           0       -3.118372   -0.458179    0.279721
     10         16           0        2.505198   -1.300121   -0.125106
     11          6           0        4.260315   -1.225762   -0.102553
     12          6           0        4.688784    0.087010    0.119416
     13          7           0        3.627512    0.981655    0.287411
     14          6           0        5.159317   -2.267461   -0.279503
     15          6           0        6.517913   -1.973596   -0.237257
     16          6           0        6.953940   -0.663841   -0.025333
     17          6           0        6.051566    0.378213    0.153458
     18          6           0       -6.446804    0.904176   -0.304215
     19          6           0       -7.251229   -0.226106   -0.226408
     20          6           0       -6.689747   -1.482485    0.014868
     21          6           0       -5.320051   -1.640504    0.186250
     22          6           0        3.847144    2.415669    0.554580
     23          6           0        3.911762    3.249637   -0.717632
     24          6           0       -2.369369   -1.660308    0.692423
     25          6           0       -1.918854   -2.522991   -0.479110
     26          1           0        1.228852    2.199196    0.376562
     27          1           0       -0.096636   -0.556945    0.072235
     28          1           0       -1.165193    2.314370    0.224199
     29          1           0        4.813961   -3.279951   -0.448352
     30          1           0        7.240415   -2.768718   -0.373960
     31          1           0        8.015538   -0.449707   -0.002068
     32          1           0        6.406822    1.388085    0.306065
     33          1           0       -6.875736    1.880738   -0.491225
     34          1           0       -8.321880   -0.129159   -0.357431
     35          1           0       -7.330326   -2.354283    0.067360
     36          1           0       -4.901973   -2.621689    0.363736
     37          1           0        3.048585    2.754296    1.212168
     38          1           0        4.772710    2.494849    1.122044
     39          1           0        4.082538    4.295496   -0.452515
     40          1           0        4.728911    2.924468   -1.364544
     41          1           0        2.978199    3.187215   -1.279982
     42          1           0       -1.531667   -1.329317    1.302601
     43          1           0       -3.027666   -2.224702    1.351768
     44          1           0       -1.276100   -1.972556   -1.168349
     45          1           0       -1.359149   -3.379171   -0.096017
     46          1           0       -2.775672   -2.899604   -1.040801
 ---------------------------------------------------------------------
 Rotational constants (GHZ):           0.5429629           0.0715335           0.0638922
 Standard basis: def2TZVP (5D, 7F)
 There are  1038 symmetry adapted cartesian basis functions of A   symmetry.
 There are   913 symmetry adapted basis functions of A   symmetry.
   913 basis functions,  1479 primitive gaussians,  1038 cartesian basis functions
    96 alpha electrons       96 beta electrons
       nuclear repulsion energy      2285.6548009337 Hartrees.
 NAtoms=   46 NActive=   46 NUniq=   46 SFac= 1.00D+00 NAtFMM=   60 NAOKFM=F Big=F
 Integral buffers will be    131072 words long.
 Regular integral format.
 Two-electron integral symmetry is turned on.
 ------------------------------------------------------------------------------
 Polarizable Continuum Model (PCM)
 =================================
 Model                : PCM.
 Atomic radii         : SMD-Coulomb.
 Polarization charges : Total charges.
 Charge compensation  : None.
 Solution method      : On-the-fly selection.
 Cavity type          : VdW (van der Waals Surface) (Alpha=1.000).
 Cavity algorithm     : GePol (No added spheres)
                        Default sphere list used, NSphG=   46.
                        Lebedev-Laikov grids with approx.  5.0 points / Ang**2.
                        Smoothing algorithm: York/Karplus (Gamma=1.0000).
                        Polarization charges: spherical gaussians, with
                                              point-specific exponents (IZeta= 3).
                        Self-potential: point-specific (ISelfS= 7).
                        Self-field    : sphere-specific E.n sum rule (ISelfD= 2).
 Solvent              : Ethanol, Eps=  24.852000 Eps(inf)=   1.852593
 ------------------------------------------------------------------------------
 ------------------------------------------------------------------------------
 Atomic radii for non-electrostatic terms: SMD-CDS.
 ------------------------------------------------------------------------------
 Nuclear repulsion after PCM non-electrostatic terms =     2285.6487450168 Hartrees.
 One-electron integrals computed using PRISM.
   1 Symmetry operations used in ECPInt.
 ECPInt:  NShTT=   66066 NPrTT=  205761 LenC2=   50229 LenP2D=  107572.
 LDataN:  DoStor=T MaxTD1= 6 Len=  172
 NBasis=   913 RedAO= T EigKep=  6.82D-06  NBF=   913
 NBsUse=   913 1.00D-06 EigRej= -1.00D+00 NBFU=   913
 ExpMin= 9.52D-02 ExpMax= 6.07D+04 ExpMxC= 2.07D+03 IAcc=3 IRadAn=         5 AccDes= 0.00D+00
 Harris functional with IExCor= 1009 and IRadAn=       5 diagonalized for initial guess.
 HarFok:  IExCor= 1009 AccDes= 0.00D+00 IRadAn=         5 IDoV= 1 UseB2=F ITyADJ=14
 ICtDFT=  3500011 ScaDFX=  1.000000  1.000000  1.000000  1.000000
 FoFCou: FMM=F IPFlag=           0 FMFlag=      100000 FMFlg1=           0
         NFxFlg=           0 DoJE=T BraDBF=F KetDBF=T FulRan=T
         wScrn=  0.000000 ICntrl=       500 IOpCl=  0 I1Cent=   200000004 NGrid=           0
         NMat0=    1 NMatS0=      1 NMatT0=    0 NMatD0=    1 NMtDS0=    0 NMtDT0=    0
 Petite list used in FoFCou.
 Requested convergence on RMS density matrix=1.00D-08 within 128 cycles.
 Requested convergence on MAX density matrix=1.00D-06.
 Requested convergence on             energy=1.00D-06.
 No special actions if energy rises.
 Inv3:  Mode=1 IEnd=    37446267.
 Iteration    1 A*A^-1 deviation from unit magnitude is 3.33D-15 for   2473.
 Iteration    1 A*A^-1 deviation from orthogonality  is 2.47D-15 for   2440   2261.
 Iteration    1 A^-1*A deviation from unit magnitude is 3.33D-15 for   2473.
 Iteration    1 A^-1*A deviation from orthogonality  is 1.78D-15 for   3304    188.
 Error on total polarization charges =  0.05809
 SCF Done:  E(RPBE+HF-PBE) =  -1717.72572045     A.U. after   13 cycles
            NFock= 13  Conv=0.45D-08     -V/T= 2.0038
 SMD-CDS (non-electrostatic) energy       (kcal/mol) =      -3.80
 (included in total energy above)
 DoSCS=F DFT=T ScalE2(SS,OS)=  1.000000  1.000000
 ExpMin= 9.52D-02 ExpMax= 6.07D+04 ExpMxC= 2.07D+03 IAcc=3 IRadAn=         5 AccDes= 0.00D+00
 HarFok:  IExCor=  205 AccDes= 0.00D+00 IRadAn=         5 IDoV=-2 UseB2=F ITyADJ=14
 ICtDFT= 12500011 ScaDFX=  1.000000  1.000000  1.000000  1.000000
 GSVD:  LWork=       -1353 too small for GESVD, short by        5940 words or        5940 for optimal perf.
 Range of M.O.s used for correlation:    34   913
 NBasis=   913 NAE=    96 NBE=    96 NFC=    33 NFV=     0
 NROrb=    880 NOA=    63 NOB=    63 NVA=   817 NVB=   817

 **** Warning!!: The largest alpha MO coefficient is  0.45222192D+02

 NEqPCM:  Using non-equilibrium solvation (IEInf=1, Eps=  24.8520, EpsInf=   1.8526)
 Inv3:  Mode=1 IEnd=    37446267.
 Iteration    1 A*A^-1 deviation from unit magnitude is 3.77D-15 for    895.
 Iteration    1 A*A^-1 deviation from orthogonality  is 2.11D-15 for   2257    888.
 Iteration    1 A^-1*A deviation from unit magnitude is 4.00D-15 for    895.
 Iteration    1 A^-1*A deviation from orthogonality  is 2.05D-15 for   1410    238.
 Orbital symmetries:
       Occupied  (A) (A) (A) (A) (A) (A) (A) (A) (A) (A) (A) (A)
                 (A) (A) (A) (A) (A) (A) (A) (A) (A) (A) (A) (A)
                 (A) (A) (A) (A) (A) (A) (A) (A) (A) (A) (A) (A)
                 (A) (A) (A) (A) (A) (A) (A) (A) (A) (A) (A) (A)
                 (A) (A) (A) (A) (A) (A) (A) (A) (A) (A) (A) (A)
                 (A) (A) (A) (A) (A) (A) (A) (A) (A) (A) (A) (A)
                 (A) (A) (A) (A) (A) (A) (A) (A) (A) (A) (A) (A)
                 (A) (A) (A) (A) (A) (A) (A) (A) (A) (A) (A) (A)
       Virtual   (A) (A) (A) (A) (A) (A) (A) (A) (A) (A) (A) (A)
                 (A) (A) (A) (A) (A) (A) (A) (A) (A) (A) (A) (A)
                 (A) (A) (A) (A) (A) (A) (A) (A) (A) (A) (A) (A)
                 (A) (A) (A) (A) (A) (A) (A) (A) (A) (A) (A) (A)
                 (A) (A) (A) (A) (A) (A) (A) (A) (A) (A) (A) (A)
                 (A) (A) (A) (A) (A) (A) (A) (A) (A) (A) (A) (A)
                 (A) (A) (A) (A) (A) (A) (A) (A) (A) (A) (A) (A)
                 (A) (A) (A) (A) (A) (A) (A) (A) (A) (A) (A) (A)
                 (A) (A) (A) (A) (A) (A) (A) (A) (A) (A) (A) (A)
                 (A) (A) (A) (A) (A) (A) (A) (A) (A) (A) (A) (A)
                 (A) (A) (A) (A) (A) (A) (A) (A) (A) (A) (A) (A)
                 (A) (A) (A) (A) (A) (A) (A) (A) (A) (A) (A) (A)
                 (A) (A) (A) (A) (A) (A) (A) (A) (A) (A) (A) (A)
                 (A) (A) (A) (A) (A) (A) (A) (A) (A) (A) (A) (A)
                 (A) (A) (A) (A) (A) (A) (A) (A) (A) (A) (A) (A)
                 (A) (A) (A) (A) (A) (A) (A) (A) (A) (A) (A) (A)
                 (A) (A) (A) (A) (A) (A) (A) (A) (A) (A) (A) (A)
                 (A) (A) (A) (A) (A) (A) (A) (A) (A) (A) (A) (A)
                 (A) (A) (A) (A) (A) (A) (A) (A) (A) (A) (A) (A)
                 (A) (A) (A) (A) (A) (A) (A) (A) (A) (A) (A) (A)
                 (A) (A) (A) (A) (A) (A) (A) (A) (A) (A) (A) (A)
                 (A) (A) (A) (A) (A) (A) (A) (A) (A) (A) (A) (A)
                 (A) (A) (A) (A) (A) (A) (A) (A) (A) (A) (A) (A)
                 (A) (A) (A) (A) (A) (A) (A) (A) (A) (A) (A) (A)
                 (A) (A) (A) (A) (A) (A) (A) (A) (A) (A) (A) (A)
                 (A) (A) (A) (A) (A) (A) (A) (A) (A) (A) (A) (A)
                 (A) (A) (A) (A) (A) (A) (A) (A) (A) (A) (A) (A)
                 (A) (A) (A) (A) (A) (A) (A) (A) (A) (A) (A) (A)
                 (A) (A) (A) (A) (A) (A) (A) (A) (A) (A) (A) (A)
                 (A) (A) (A) (A) (A) (A) (A) (A) (A) (A) (A) (A)
                 (A) (A) (A) (A) (A) (A) (A) (A) (A) (A) (A) (A)
                 (A) (A) (A) (A) (A) (A) (A) (A) (A) (A) (A) (A)
                 (A) (A) (A) (A) (A) (A) (A) (A) (A) (A) (A) (A)
                 (A) (A) (A) (A) (A) (A) (A) (A) (A) (A) (A) (A)
                 (A) (A) (A) (A) (A) (A) (A) (A) (A) (A) (A) (A)
                 (A) (A) (A) (A) (A) (A) (A) (A) (A) (A) (A) (A)
                 (A) (A) (A) (A) (A) (A) (A) (A) (A) (A) (A) (A)
                 (A) (A) (A) (A) (A) (A) (A) (A) (A) (A) (A) (A)
                 (A) (A) (A) (A) (A) (A) (A) (A) (A) (A) (A) (A)
                 (A) (A) (A) (A) (A) (A) (A) (A) (A) (A) (A) (A)
                 (A) (A) (A) (A) (A) (A) (A) (A) (A) (A) (A) (A)
                 (A) (A) (A) (A) (A) (A) (A) (A) (A) (A) (A) (A)
                 (A) (A) (A) (A) (A) (A) (A) (A) (A) (A) (A) (A)
                 (A) (A) (A) (A) (A) (A) (A) (A) (A) (A) (A) (A)
                 (A) (A) (A) (A) (A) (A) (A) (A) (A) (A) (A) (A)
                 (A) (A) (A) (A) (A) (A) (A) (A) (A) (A) (A) (A)
                 (A) (A) (A) (A) (A) (A) (A) (A) (A) (A) (A) (A)
                 (A) (A) (A) (A) (A) (A) (A) (A) (A) (A) (A) (A)
                 (A) (A) (A) (A) (A) (A) (A) (A) (A) (A) (A) (A)
                 (A) (A) (A) (A) (A) (A) (A) (A) (A) (A) (A) (A)
                 (A) (A) (A) (A) (A) (A) (A) (A) (A) (A) (A) (A)
                 (A) (A) (A) (A) (A) (A) (A) (A) (A) (A) (A) (A)
                 (A) (A) (A) (A) (A) (A) (A) (A) (A) (A) (A) (A)
                 (A) (A) (A) (A) (A) (A) (A) (A) (A) (A) (A) (A)
                 (A) (A) (A) (A) (A) (A) (A) (A) (A) (A) (A) (A)
                 (A) (A) (A) (A) (A) (A) (A) (A) (A) (A) (A) (A)
                 (A) (A) (A) (A) (A) (A) (A) (A) (A) (A) (A) (A)
                 (A) (A) (A) (A) (A) (A) (A) (A) (A) (A) (A) (A)
                 (A) (A) (A) (A) (A) (A) (A) (A) (A) (A) (A) (A)
                 (A) (A) (A) (A) (A) (A) (A) (A) (A) (A) (A) (A)
                 (A) (A) (A) (A) (A) (A) (A) (A) (A) (A) (A) (A)
                 (A) (A) (A) (A) (A) (A) (A) (A) (A) (A) (A) (A)
                 (A) (A) (A) (A) (A) (A) (A) (A) (A) (A) (A) (A)
                 (A) (A) (A) (A) (A) (A) (A) (A) (A) (A) (A) (A)
                 (A) (A) (A) (A) (A) (A) (A) (A) (A) (A) (A) (A)
                 (A) (A) (A) (A) (A) (A) (A) (A) (A) (A) (A) (A)
                 (A) (A) (A) (A) (A) (A) (A) (A) (A) (A) (A) (A)
                 (A) (A) (A) (A) (A) (A) (A) (A) (A) (A) (A) (A)
                 (A)
   600 initial guesses have been made.
 Convergence on wavefunction:    0.001000000000000
 Iteration     1 Dimension   600 NMult     0 NNew    600
 CISAX will form   180 AO SS matrices at one time.
 New state      3 was old state      4
 New state      4 was old state      8
 New state      6 was old state     10
 New state      7 was old state      6
 New state      8 was old state     23
 New state      9 was old state      7
 New state     10 was old state      9
 New state     13 was old state     20
 New state     14 was old state     30
 New state     15 was old state     13
 New state     16 was old state     35
 New state     17 was old state     15
 New state     18 was old state     19
 New state     19 was old state     24
 New state     20 was old state     27
 New state     21 was old state     26
 New state     22 was old state     17
 New state     23 was old state     34
 New state     24 was old state     16
 New state     25 was old state     32
 New state     26 was old state     41
 New state     27 was old state     25
 New state     28 was old state     37
 New state     29 was old state     21
 New state     30 was old state     14
 New state     31 was old state     49
 New state     32 was old state     18
 New state     33 was old state     22
 New state     34 was old state     38
 New state     35 was old state     43
 New state     36 was old state     28
 New state     37 was old state     42
 New state     38 was old state     44
 New state     39 was old state     31
 New state     40 was old state     52
 New state     41 was old state     50
 New state     42 was old state     48
 New state     43 was old state     33
 New state     44 was old state     29
 New state     45 was old state     36
 New state     46 was old state     45
 New state     47 was old state     57
 New state     48 was old state     51
 New state     49 was old state     47
 New state     50 was old state     39
 New state     51 was old state     54
 New state     52 was old state     62
 New state     53 was old state     40
 New state     54 was old state     53
 New state     55 was old state     46
 New state     56 was old state     94
 New state     57 was old state     74
 New state     58 was old state     97
 New state     59 was old state     61
 New state     60 was old state     59
 New state     61 was old state     58
 New state     62 was old state     60
 New state     63 was old state     56
 New state     64 was old state     55
 New state     65 was old state     68
 New state     66 was old state     63
 New state     68 was old state     64
 New state     69 was old state     73
 New state     70 was old state     77
 New state     71 was old state     70
 New state     72 was old state    128
 New state     73 was old state     78
 New state     74 was old state     66
 New state     75 was old state     76
 New state     76 was old state     83
 New state     77 was old state     84
 New state     78 was old state     90
 New state     79 was old state     82
 New state     81 was old state     72
 New state     82 was old state    114
 New state     83 was old state    141
 New state     84 was old state     85
 New state     85 was old state    116
 New state     86 was old state    119
 New state     87 was old state     81
 New state     88 was old state    118
 New state     89 was old state     65
 New state     90 was old state    163
 New state     91 was old state     89
 New state     92 was old state     95
 New state     93 was old state     88
 New state     94 was old state     91
 New state     95 was old state    181
 New state     96 was old state    184
 New state     97 was old state     99
 New state     98 was old state    172
 New state     99 was old state     79
 New state    100 was old state     98
 New state    101 was old state    108
 New state    102 was old state     92
 New state    103 was old state     87
 New state    104 was old state     86
 New state    105 was old state    104
 New state    106 was old state    103
 New state    107 was old state    101
 New state    108 was old state    102
 New state    110 was old state    113
 New state    111 was old state     93
 New state    112 was old state    105
 New state    113 was old state     75
 New state    114 was old state     71
 New state    115 was old state    130
 New state    116 was old state     96
 New state    117 was old state    100
 New state    118 was old state    110
 New state    119 was old state    125
 New state    120 was old state    123
 New state    121 was old state    144
 New state    122 was old state    117
 New state    123 was old state    227
 New state    124 was old state    112
 New state    125 was old state    151
 New state    126 was old state    132
 New state    127 was old state    133
 New state    128 was old state    239
 New state    130 was old state    115
 New state    131 was old state    143
 New state    132 was old state    127
 New state    133 was old state    111
 New state    134 was old state    154
 New state    135 was old state    121
 New state    136 was old state    107
 New state    137 was old state    155
 New state    138 was old state    137
 New state    139 was old state    138
 New state    140 was old state    131
 New state    141 was old state    136
 New state    142 was old state    145
 New state    143 was old state    148
 New state    144 was old state    146
 New state    145 was old state    167
 New state    146 was old state    147
 New state    147 was old state    152
 New state    148 was old state    175
 New state    149 was old state    165
 New state    150 was old state    211
 Iteration     2 Dimension   900 NMult   600 NNew    300
 New state      4 was old state      5
 New state      5 was old state      4
 New state      6 was old state      7
 New state      7 was old state      8
 New state      8 was old state      6
 New state     17 was old state     22
 New state     18 was old state     17
 New state     19 was old state     18
 New state     20 was old state     24
 New state     21 was old state     19
 New state     22 was old state     21
 New state     23 was old state     25
 New state     24 was old state     20
 New state     25 was old state     23
 New state     26 was old state     29
 New state     27 was old state     30
 New state     28 was old state     31
 New state     29 was old state     26
 New state     30 was old state     36
 New state     31 was old state     28
 New state     32 was old state     43
 New state     33 was old state     34
 New state     34 was old state     33
 New state     35 was old state     32
 New state     36 was old state     35
 New state     37 was old state     39
 New state     38 was old state     37
 New state     39 was old state     38
 No map to state     40
 New state     41 was old state     46
 New state     42 was old state     40
 New state     43 was old state     41
 New state     44 was old state     42
 New state     45 was old state     44
 New state     46 was old state     47
 New state     47 was old state     45
 New state     48 was old state     50
 New state     49 was old state     53
 New state     50 was old state     48
 New state     51 was old state     49
 New state     52 was old state     51
 New state     53 was old state     52
 New state     54 was old state     57
 New state     55 was old state     54
 New state     56 was old state     63
 New state     57 was old state     55
 New state     58 was old state     56
 New state     59 was old state     58
 New state     61 was old state     59
 New state     62 was old state     61
 New state     63 was old state     64
 New state     64 was old state     76
 New state     65 was old state     62
 New state     66 was old state     65
 New state     67 was old state     78
 New state     68 was old state     67
 New state     69 was old state     66
 New state     71 was old state     68
 New state     72 was old state     71
 New state     73 was old state     72
 New state     74 was old state     69
 New state     75 was old state     74
 New state     76 was old state     73
 New state     77 was old state     79
 New state     78 was old state     75
 New state     79 was old state     81
 New state     80 was old state     89
 New state     81 was old state     77
 New state     83 was old state     80
 New state     84 was old state     85
 New state     85 was old state     83
 New state     86 was old state     90
 New state     87 was old state     86
 New state     89 was old state     87
 New state     90 was old state     84
 New state     93 was old state     96
 New state     94 was old state     95
 New state     95 was old state     93
 New state     96 was old state     94
 New state     97 was old state     99
 New state     99 was old state    104
 New state    100 was old state     97
 New state    101 was old state    102
 New state    102 was old state    100
 New state    103 was old state    101
 New state    104 was old state    103
 New state    105 was old state    108
 New state    106 was old state    105
 New state    107 was old state    111
 New state    108 was old state    106
 New state    109 was old state    107
 New state    111 was old state    109
 New state    112 was old state    116
 New state    113 was old state    112
 New state    114 was old state    115
 New state    115 was old state    117
 New state    116 was old state    113
 New state    117 was old state    114
 New state    121 was old state    123
 New state    122 was old state    121
 New state    123 was old state    122
 New state    124 was old state    126
 New state    125 was old state    130
 New state    126 was old state    124
 New state    127 was old state    128
 New state    128 was old state    129
 New state    129 was old state    125
 New state    130 was old state    127
 New state    132 was old state    151
 New state    133 was old state    132
 New state    134 was old state    141
 New state    135 was old state    133
 New state    136 was old state    135
 New state    138 was old state    134
 New state    139 was old state    138
 New state    140 was old state    136
 New state    141 was old state    139
 New state    142 was old state    144
 New state    143 was old state    142
 New state    144 was old state    145
 New state    145 was old state    140
 New state    146 was old state    143
 New state    147 was old state    146
 New state    148 was old state    150
 New state    149 was old state    147
 New state    150 was old state    152
 Iteration     3 Dimension  1200 NMult   900 NNew    300
 New state    124 was old state    125
 New state    125 was old state    124
 New state    132 was old state    133
 New state    133 was old state    132
 Iteration     4 Dimension  1498 NMult  1200 NNew    298
 Iteration     5 Dimension  1596 NMult  1498 NNew     98
 ***********************************************************************
 Excited states from <AA,BB:AA,BB> singles matrix:
 ***********************************************************************
 
 Ground to excited state transition densities written to RWF  633
 Ground to excited state transition electric dipole moments (Au):
       state          X           Y           Z        Dip. S.      Osc.
         1         5.1349     -0.1952     -0.0024     26.4057      1.7466
         2         0.5091      0.3984      0.0926      0.4265      0.0452
         3         0.0782     -0.3968      0.0629      0.1675      0.0180
         4        -0.1799     -0.3606     -0.0590      0.1659      0.0181
         5         0.0834      0.1015     -0.0610      0.0210      0.0024
         6        -0.9427     -0.1340     -0.0216      0.9071      0.1037
         7        -0.3225     -0.8487      0.0248      0.8249      0.0951
         8         0.1057     -0.0069      0.0594      0.0147      0.0017
         9         0.2290      0.3163      0.1537      0.1761      0.0208
        10         0.2694      0.5869      0.0152      0.4172      0.0522
        11        -0.6024      0.0324     -0.0005      0.3640      0.0469
        12         0.1690     -0.5212     -0.0671      0.3047      0.0416
        13        -0.9847     -0.1428     -0.1185      1.0040      0.1441
        14         0.8759     -0.7052     -0.0911      1.2729      0.1834
        15        -0.1281     -0.0065      0.0293      0.0173      0.0025
        16         0.0158     -0.0150     -0.0047      0.0005      0.0001
        17         0.4324     -0.6444     -0.0944      0.6112      0.0908
        18        -0.5235      0.1677     -0.1067      0.3135      0.0467
        19         0.3803      0.0672     -0.0329      0.1502      0.0228
        20        -0.1357     -0.3904      0.0014      0.1708      0.0261
        21        -0.0439      0.0908      0.0046      0.0102      0.0016
        22        -0.0306     -0.1245     -0.0063      0.0165      0.0026
        23         0.2420      0.0802      0.0605      0.0686      0.0109
        24         0.1840      0.2399     -0.0022      0.0914      0.0146
        25         0.4399      0.0601      0.0875      0.2048      0.0330
        26        -1.3261     -1.2968      0.0338      3.4413      0.5562
        27         0.2226     -0.5865      0.0126      0.3937      0.0638
        28        -1.5827      0.1214      0.1008      2.5297      0.4111
        29         0.7317     -0.5344      0.1233      0.8361      0.1365
        30        -0.6182      0.1605     -0.1090      0.4197      0.0687
        31        -0.0386      0.0332      0.0765      0.0084      0.0014
        32        -0.3927     -0.3129     -0.2122      0.2971      0.0500
        33         0.0582      0.1175     -0.0986      0.0269      0.0046
        34        -0.1655      0.2324      0.0867      0.0889      0.0152
        35         0.0731      0.0352      0.0039      0.0066      0.0011
        36        -0.0235     -0.0316     -0.0145      0.0018      0.0003
        37        -0.2799      0.1555      0.0409      0.1042      0.0179
        38         0.3565      0.2668      0.0711      0.2033      0.0352
        39        -0.2674      0.0136     -0.0828      0.0785      0.0137
        40        -0.0638      0.0286      0.0686      0.0096      0.0017
        41         0.5590     -0.6272      0.0161      0.7061      0.1255
        42         0.0739     -0.0603      0.0038      0.0091      0.0016
        43        -0.1073     -0.0185      0.0304      0.0128      0.0023
        44         0.0570     -0.0749     -0.0481      0.0112      0.0020
        45        -0.0087     -0.0327     -0.0027      0.0012      0.0002
        46        -0.1390     -0.1529      0.0818      0.0494      0.0090
        47         0.0369     -0.0108     -0.0122      0.0016      0.0003
        48         0.3467      0.4593      0.0205      0.3316      0.0603
        49        -0.6692     -0.0310     -0.0069      0.4488      0.0819
        50         0.1140     -0.0107     -0.0823      0.0199      0.0036
        51        -0.0305      0.2608      0.0160      0.0692      0.0128
        52        -0.0226      0.0253     -0.0202      0.0016      0.0003
        53         0.0004      0.1001      0.0170      0.0103      0.0019
        54        -0.0270      0.0922     -0.0298      0.0101      0.0019
        55        -0.0618      0.0194      0.0133      0.0044      0.0008
        56        -0.0021      0.0395     -0.0234      0.0021      0.0004
        57        -0.1512      0.0664     -0.0316      0.0283      0.0053
        58        -0.0360     -0.0069      0.0562      0.0045      0.0008
        59         0.0088      0.0226     -0.0838      0.0076      0.0014
        60        -0.1305      0.2900     -0.0154      0.1014      0.0193
        61        -0.1326      0.0447     -0.0252      0.0202      0.0038
        62        -0.0368     -0.0599      0.1204      0.0194      0.0037
        63        -0.3367      0.8616      0.0533      0.8585      0.1643
        64        -0.5724     -0.0479     -0.1621      0.3562      0.0683
        65        -0.0481     -0.0233     -0.1058      0.0141      0.0027
        66        -0.0686      0.2275      0.0105      0.0566      0.0110
        67        -0.6000      1.1588     -0.0181      1.7032      0.3320
        68        -0.2617      0.1432     -0.0974      0.0985      0.0193
        69        -0.0816     -0.0401      0.1617      0.0344      0.0067
        70         0.0899     -0.0530     -0.0430      0.0127      0.0025
        71         0.0614     -0.0466     -0.0661      0.0103      0.0020
        72        -0.0445      0.1848      0.0604      0.0398      0.0078
        73        -0.1328     -0.0562      0.2862      0.1027      0.0203
        74        -0.0562     -0.0473      0.0779      0.0115      0.0023
        75         0.3447      0.0158      0.2433      0.1782      0.0355
        76         0.0857      0.4025      0.0444      0.1713      0.0341
        77        -0.1571     -0.2838      0.0814      0.1118      0.0223
        78         0.5041      0.2128     -0.0299      0.3003      0.0600
        79         0.2765      0.0724      0.1656      0.1091      0.0219
        80        -0.1507     -0.2240      0.1141      0.0859      0.0173
        81         0.0196     -0.0085     -0.0218      0.0009      0.0002
        82         0.1298     -0.0799     -0.0532      0.0261      0.0053
        83        -0.0016      0.1624     -0.0489      0.0288      0.0059
        84        -0.0020     -0.0110      0.0198      0.0005      0.0001
        85         0.0432      0.0166      0.1304      0.0192      0.0039
        86        -0.0143      0.2435      0.0705      0.0645      0.0133
        87         0.0130      0.2531      0.0252      0.0649      0.0134
        88        -0.0430     -0.0765     -0.0688      0.0124      0.0026
        89        -0.0213      0.1127     -0.0240      0.0137      0.0029
        90         0.0664      0.1735      0.0174      0.0348      0.0073
        91        -0.0128     -0.1955     -0.0273      0.0391      0.0082
        92        -0.0021      0.2073     -0.0534      0.0458      0.0096
        93         0.2049     -0.0439      0.0976      0.0534      0.0112
        94         0.0297     -0.1558      0.0469      0.0274      0.0057
        95        -0.1294     -0.2158     -0.0133      0.0635      0.0133
        96         0.1890      0.0819      0.0122      0.0426      0.0090
        97         0.0266     -0.0918     -0.0927      0.0177      0.0037
        98        -0.0868     -0.0534     -0.0718      0.0156      0.0033
        99         0.1779      0.0796     -0.0466      0.0402      0.0085
       100         0.3369      0.1538      0.0429      0.1390      0.0294
       101         0.1051      0.1516     -0.0854      0.0413      0.0087
       102         0.1981     -0.2774      0.0451      0.1182      0.0251
       103         0.2320     -0.1533     -0.0293      0.0782      0.0166
       104         0.2081      0.0037     -0.0633      0.0473      0.0101
       105        -0.0076      0.0267     -0.1099      0.0128      0.0027
       106        -0.1166      0.0966     -0.0141      0.0231      0.0049
       107        -0.0809     -0.0231      0.0510      0.0097      0.0021
       108        -0.0727     -0.0494     -0.0303      0.0086      0.0019
       109         0.1402     -0.2451     -0.0495      0.0822      0.0177
       110         0.4056      0.1333      0.0145      0.1825      0.0394
       111        -0.1497     -0.1304     -0.1337      0.0573      0.0124
       112        -0.0101      0.1606     -0.1351      0.0441      0.0096
       113         0.0299     -0.0972      0.0944      0.0193      0.0042
       114        -0.1575     -0.3539      0.0699      0.1549      0.0336
       115        -0.0743     -0.4824     -0.0091      0.2383      0.0518
       116         0.0719      0.0976     -0.0114      0.0148      0.0032
       117        -0.1394     -0.0743      0.0297      0.0258      0.0056
       118        -0.1066      0.1024     -0.0210      0.0223      0.0049
       119         0.0059      0.0746      0.0040      0.0056      0.0012
       120         0.0478      0.0525      0.0978      0.0146      0.0032
       121         0.0348     -0.0601      0.0802      0.0113      0.0025
       122        -0.0273     -0.0120      0.0370      0.0023      0.0005
       123         0.7673     -0.4078      0.0469      0.7572      0.1679
       124        -0.3939      0.5957      0.0948      0.5190      0.1152
       125         0.0127     -0.0673     -0.0167      0.0050      0.0011
       126        -0.0038     -0.0412      0.1123      0.0143      0.0032
       127         0.0759      0.1539      0.1093      0.0414      0.0092
       128         0.0199     -0.0326      0.0150      0.0017      0.0004
       129        -0.0572      0.0876     -0.0987      0.0207      0.0046
       130        -0.0560      0.1347      0.0505      0.0238      0.0053
       131         0.3491     -0.2486     -0.0814      0.1903      0.0426
       132         0.1219      0.3135     -0.0550      0.1162      0.0261
       133        -0.3435      0.0237     -0.0801      0.1249      0.0280
       134         0.2116     -0.1104     -0.0778      0.0630      0.0142
       135         0.0379     -0.0977      0.1239      0.0263      0.0059
       136         0.0143     -0.0250     -0.0375      0.0022      0.0005
       137         0.1012      0.1478     -0.0014      0.0321      0.0073
       138         0.0107     -0.0530      0.0766      0.0088      0.0020
       139         0.0726      0.1170      0.0963      0.0282      0.0064
       140         0.0112      0.0321     -0.0608      0.0049      0.0011
       141         0.0284      0.1594     -0.0618      0.0300      0.0069
       142        -0.0722     -0.0625      0.0200      0.0095      0.0022
       143         0.0010      0.0112     -0.0305      0.0011      0.0002
       144         0.0042      0.0920      0.1850      0.0427      0.0098
       145         0.0869      0.0133     -0.1592      0.0331      0.0076
       146        -0.0001      0.1275      0.0321      0.0173      0.0040
       147         0.0394      0.0262      0.0948      0.0112      0.0026
       148         0.0638     -0.0932      0.0038      0.0128      0.0029
       149        -0.0866     -0.0922     -0.0261      0.0167      0.0038
       150         0.0280     -0.1539      0.0259      0.0251      0.0058
 Ground to excited state transition velocity dipole moments (Au):
       state          X           Y           Z        Dip. S.      Osc.
         1        -0.5079      0.0200      0.0002      0.2584      1.7361
         2        -0.0805     -0.0628     -0.0147      0.0106      0.0447
         3        -0.0116      0.0641     -0.0099      0.0043      0.0179
         4         0.0290      0.0586      0.0098      0.0044      0.0178
         5        -0.0141     -0.0174      0.0114      0.0006      0.0025
         6         0.1608      0.0252      0.0039      0.0265      0.1030
         7         0.0550      0.1483     -0.0043      0.0250      0.0965
         8        -0.0183      0.0011     -0.0101      0.0004      0.0017
         9        -0.0409     -0.0560     -0.0274      0.0056      0.0209
        10        -0.0486     -0.1126     -0.0031      0.0150      0.0535
        11         0.1178     -0.0065      0.0001      0.0139      0.0481
        12        -0.0343      0.1063      0.0130      0.0126      0.0412
        13         0.2115      0.0297      0.0256      0.0463      0.1433
        14        -0.1886      0.1537      0.0201      0.0596      0.1837
        15         0.0286      0.0009     -0.0071      0.0009      0.0026
        16        -0.0035      0.0030      0.0016      0.0000      0.0001
        17        -0.0970      0.1452      0.0211      0.0309      0.0926
        18         0.1179     -0.0380      0.0241      0.0159      0.0476
        19        -0.0850     -0.0149      0.0076      0.0075      0.0219
        20         0.0322      0.0877      0.0003      0.0087      0.0254
        21         0.0093     -0.0217     -0.0024      0.0006      0.0016
        22         0.0107      0.0289      0.0011      0.0010      0.0027
        23        -0.0578     -0.0191     -0.0143      0.0039      0.0110
        24        -0.0432     -0.0575     -0.0000      0.0052      0.0144
        25        -0.1065     -0.0139     -0.0200      0.0119      0.0329
        26         0.3189      0.3147     -0.0083      0.2008      0.5522
        27        -0.0533      0.1413     -0.0030      0.0228      0.0625
        28         0.3846     -0.0298     -0.0242      0.1494      0.4086
        29        -0.1802      0.1314     -0.0307      0.0507      0.1380
        30         0.1526     -0.0398      0.0262      0.0256      0.0695
        31         0.0106     -0.0079     -0.0198      0.0006      0.0015
        32         0.0985      0.0799      0.0538      0.0190      0.0501
        33        -0.0142     -0.0316      0.0239      0.0018      0.0046
        34         0.0418     -0.0587     -0.0213      0.0057      0.0147
        35        -0.0187     -0.0093     -0.0011      0.0004      0.0011
        36         0.0062      0.0087      0.0054      0.0001      0.0004
        37         0.0715     -0.0398     -0.0105      0.0068      0.0176
        38        -0.0920     -0.0697     -0.0189      0.0137      0.0351
        39         0.0694     -0.0044      0.0210      0.0053      0.0134
        40         0.0161     -0.0079     -0.0186      0.0007      0.0017
        41        -0.1502      0.1663     -0.0042      0.0502      0.1256
        42        -0.0200      0.0163     -0.0008      0.0007      0.0017
        43         0.0276      0.0041     -0.0082      0.0008      0.0021
        44        -0.0164      0.0210      0.0123      0.0009      0.0021
        45         0.0025      0.0089      0.0006      0.0001      0.0002
        46         0.0383      0.0415     -0.0228      0.0037      0.0091
        47        -0.0098      0.0029      0.0036      0.0001      0.0003
        48        -0.0941     -0.1250     -0.0062      0.0245      0.0599
        49         0.1834      0.0074      0.0015      0.0337      0.0821
        50        -0.0304      0.0027      0.0204      0.0014      0.0033
        51         0.0083     -0.0717     -0.0041      0.0052      0.0126
        52         0.0060     -0.0067      0.0052      0.0001      0.0003
        53         0.0007     -0.0278     -0.0067      0.0008      0.0020
        54         0.0080     -0.0254      0.0083      0.0008      0.0019
        55         0.0172     -0.0052     -0.0040      0.0003      0.0008
        56         0.0002     -0.0110      0.0067      0.0002      0.0004
        57         0.0429     -0.0182      0.0092      0.0023      0.0053
        58         0.0095      0.0021     -0.0149      0.0003      0.0008
        59        -0.0027     -0.0065      0.0223      0.0005      0.0013
        60         0.0394     -0.0824      0.0045      0.0084      0.0195
        61         0.0387     -0.0132      0.0068      0.0017      0.0040
        62         0.0110      0.0181     -0.0334      0.0016      0.0036
        63         0.0965     -0.2458     -0.0154      0.0700      0.1625
        64         0.1640      0.0141      0.0463      0.0292      0.0678
        65         0.0141      0.0067      0.0285      0.0011      0.0024
        66         0.0201     -0.0656     -0.0041      0.0047      0.0108
        67         0.1753     -0.3355      0.0052      0.1433      0.3268
        68         0.0764     -0.0415      0.0282      0.0084      0.0190
        69         0.0232      0.0119     -0.0444      0.0027      0.0060
        70        -0.0268      0.0166      0.0137      0.0012      0.0027
        71        -0.0178      0.0130      0.0202      0.0009      0.0020
        72         0.0120     -0.0546     -0.0127      0.0033      0.0074
        73         0.0379      0.0175     -0.0796      0.0081      0.0181
        74         0.0167      0.0139     -0.0202      0.0009      0.0020
        75        -0.1004     -0.0043     -0.0685      0.0148      0.0330
        76        -0.0270     -0.1201     -0.0102      0.0153      0.0340
        77         0.0478      0.0830     -0.0198      0.0096      0.0213
        78        -0.1497     -0.0655      0.0073      0.0267      0.0595
        79        -0.0844     -0.0209     -0.0471      0.0098      0.0217
        80         0.0463      0.0666     -0.0330      0.0077      0.0169
        81        -0.0099      0.0038      0.0078      0.0002      0.0004
        82        -0.0373      0.0233      0.0137      0.0021      0.0047
        83        -0.0002     -0.0496      0.0152      0.0027      0.0059
        84         0.0006      0.0031     -0.0063      0.0001      0.0001
        85        -0.0131     -0.0046     -0.0344      0.0014      0.0030
        86         0.0028     -0.0750     -0.0198      0.0060      0.0130
        87        -0.0058     -0.0788     -0.0052      0.0063      0.0135
        88         0.0141      0.0245      0.0185      0.0011      0.0024
        89         0.0058     -0.0355      0.0032      0.0013      0.0028
        90        -0.0207     -0.0536     -0.0049      0.0033      0.0071
        91         0.0067      0.0607      0.0103      0.0038      0.0082
        92        -0.0008     -0.0643      0.0150      0.0044      0.0093
        93        -0.0641      0.0131     -0.0293      0.0051      0.0109
        94        -0.0088      0.0483     -0.0141      0.0026      0.0055
        95         0.0418      0.0681      0.0040      0.0064      0.0135
        96        -0.0579     -0.0254     -0.0036      0.0040      0.0085
        97        -0.0053      0.0273      0.0266      0.0015      0.0031
        98         0.0276      0.0165      0.0207      0.0015      0.0031
        99        -0.0597     -0.0244      0.0143      0.0044      0.0092
       100        -0.1053     -0.0495     -0.0131      0.0137      0.0288
       101        -0.0377     -0.0472      0.0261      0.0043      0.0091
       102        -0.0618      0.0868     -0.0134      0.0115      0.0241
       103        -0.0744      0.0489      0.0080      0.0080      0.0167
       104        -0.0680      0.0001      0.0204      0.0050      0.0105
       105         0.0022     -0.0090      0.0357      0.0014      0.0028
       106         0.0393     -0.0319      0.0063      0.0026      0.0054
       107         0.0266      0.0074     -0.0159      0.0010      0.0021
       108         0.0235      0.0143      0.0101      0.0009      0.0018
       109        -0.0440      0.0786      0.0136      0.0083      0.0171
       110        -0.1285     -0.0408     -0.0024      0.0182      0.0374
       111         0.0468      0.0427      0.0404      0.0057      0.0116
       112         0.0013     -0.0514      0.0397      0.0042      0.0086
       113        -0.0099      0.0317     -0.0270      0.0018      0.0037
       114         0.0520      0.1138     -0.0219      0.0161      0.0330
       115         0.0260      0.1552      0.0032      0.0248      0.0507
       116        -0.0239     -0.0320      0.0037      0.0016      0.0033
       117         0.0459      0.0236     -0.0093      0.0028      0.0056
       118         0.0370     -0.0330      0.0070      0.0025      0.0051
       119        -0.0010     -0.0230     -0.0020      0.0005      0.0011
       120        -0.0166     -0.0183     -0.0304      0.0015      0.0031
       121        -0.0119      0.0195     -0.0265      0.0012      0.0025
       122         0.0096      0.0036     -0.0116      0.0002      0.0005
       123        -0.2576      0.1352     -0.0153      0.0849      0.1702
       124         0.1326     -0.1994     -0.0316      0.0584      0.1169
       125        -0.0041      0.0228      0.0067      0.0006      0.0012
       126         0.0015      0.0145     -0.0357      0.0015      0.0030
       127        -0.0243     -0.0521     -0.0362      0.0046      0.0092
       128        -0.0075      0.0104     -0.0052      0.0002      0.0004
       129         0.0192     -0.0292      0.0282      0.0020      0.0040
       130         0.0186     -0.0459     -0.0168      0.0027      0.0054
       131        -0.1184      0.0813      0.0242      0.0212      0.0421
       132        -0.0394     -0.1063      0.0187      0.0132      0.0262
       133         0.1150     -0.0072      0.0254      0.0139      0.0276
       134        -0.0700      0.0366      0.0232      0.0068      0.0134
       135        -0.0114      0.0312     -0.0377      0.0025      0.0050
       136        -0.0053      0.0080      0.0136      0.0003      0.0005
       137        -0.0350     -0.0485     -0.0009      0.0036      0.0070
       138        -0.0030      0.0179     -0.0249      0.0010      0.0019
       139        -0.0243     -0.0398     -0.0318      0.0032      0.0062
       140        -0.0045     -0.0110      0.0188      0.0005      0.0010
       141        -0.0120     -0.0538      0.0176      0.0033      0.0065
       142         0.0258      0.0218     -0.0065      0.0012      0.0023
       143        -0.0008     -0.0051      0.0087      0.0001      0.0002
       144        -0.0014     -0.0305     -0.0604      0.0046      0.0089
       145        -0.0294     -0.0037      0.0515      0.0035      0.0068
       146        -0.0002     -0.0437     -0.0089      0.0020      0.0039
       147        -0.0120     -0.0067     -0.0304      0.0011      0.0022
       148        -0.0228      0.0308     -0.0019      0.0015      0.0028
       149         0.0313      0.0326      0.0087      0.0021      0.0041
       150        -0.0106      0.0531     -0.0078      0.0030      0.0058
 Ground to excited state transition magnetic dipole moments (Au):
       state          X           Y           Z
         1         0.0491     -0.3216      1.3917
         2         0.0380     -0.0148     -0.1319
         3        -0.1010      0.0208     -0.1103
         4        -0.0468     -0.0976      0.3932
         5         0.1041     -0.0829      0.4913
         6        -0.0021     -0.1000      1.0366
         7         0.0314     -0.2614     -1.1049
         8         0.1889      0.2115     -0.7417
         9         0.0300     -0.1537     -1.6659
        10         0.0249      0.3032     -0.2271
        11        -0.0198      0.0351     -0.2265
        12         0.0090     -0.0413     -0.7685
        13        -0.0256      0.2516      0.3850
        14        -0.0769     -0.3476      1.4877
        15         0.0233     -0.3723      0.0402
        16        -0.2867     -0.4473      0.0610
        17         0.0211     -0.3180      1.6590
        18        -0.0780      0.2155      1.4278
        19         0.0358     -0.0633      0.4877
        20        -0.1626      0.0408      0.0738
        21        -0.1233      0.1521     -0.0136
        22        -0.0229     -0.0155      0.2774
        23         0.0300     -0.2055     -1.4087
        24        -0.0860      0.1799      0.1570
        25         0.0416     -0.0330      0.6006
        26         0.1200     -0.5352     -1.6483
        27         0.1019      0.0871     -3.3408
        28        -0.0630      0.3474     -0.6594
        29        -0.1033     -0.1300     -0.9214
        30         0.1812     -0.0472      0.4631
        31         0.1392      0.0377      0.4117
        32        -0.0759     -0.0379      3.3672
        33         0.1998     -0.1060     -0.1608
        34        -0.0147      0.0164     -0.3241
        35        -0.0661      0.0098      0.1484
        36         0.5497      0.0628      0.0679
        37         0.0960     -0.0746     -0.7104
        38        -0.0434     -0.0311     -0.3654
        39         0.1135      0.1129      0.0984
        40         0.3004     -0.1928     -0.1813
        41        -0.0252     -0.2835      0.5705
        42         0.0456      0.0365      0.0519
        43         0.0748     -0.0830     -0.0745
        44        -0.0716     -0.2552      0.0618
        45         0.0052     -0.0378     -0.0626
        46        -0.2745     -0.3273     -0.4995
        47        -0.0013      0.1179      0.0299
        48        -0.2491     -0.1248      1.3447
        49         0.0486     -0.0350      0.2542
        50        -0.2355     -0.1572      0.0753
        51         0.0264      0.1011      0.1907
        52         0.1346     -0.1282     -0.1925
        53         0.5861      0.1359     -0.0697
        54         0.3766     -0.1958      0.2230
        55        -0.3097     -0.3972      0.0100
        56        -0.0478     -0.0782      0.3238
        57         0.0261     -0.0108     -0.0618
        58        -0.1083      0.2040     -0.3543
        59        -0.2421      0.0370     -0.1153
        60         0.1327      0.1882     -0.5011
        61         0.2275      0.0473      0.0663
        62         0.0705     -0.3945      0.0075
        63         0.1203      0.3334     -1.3060
        64        -0.0272      0.0975      2.9539
        65         0.0881      0.2154      0.4199
        66         0.4676     -0.3416     -0.5588
        67        -0.0224      0.6756     -0.3333
        68         0.0566     -0.0505      0.8217
        69         0.1727      0.5034      0.7721
        70        -0.0695      0.1521     -0.7537
        71         0.3690      0.1940     -0.3564
        72        -0.1256      0.2168      0.0309
        73         0.0986     -0.2706      0.2063
        74        -0.0930     -0.7261     -0.4780
        75        -0.1063     -0.0182     -2.2916
        76        -0.0837      0.3042      2.1278
        77        -0.0795      0.2782     -0.0336
        78         0.1532      0.3317     -0.7432
        79        -0.0077      0.3407     -0.6697
        80        -0.1007      0.1126      0.1795
        81         0.0857      0.1026     -0.4104
        82         0.2900      0.1055      0.0314
        83        -0.2798     -0.0417     -0.2274
        84        -0.2760     -0.0956     -0.1542
        85        -0.2347     -0.0948      0.0875
        86         0.1294     -0.0836     -0.2867
        87         0.0839      0.1100     -0.2103
        88        -0.1277      0.2493      0.1811
        89         0.0035      0.4453     -0.2945
        90        -0.1435     -0.3031     -0.2270
        91        -0.2684      0.3064      0.1593
        92        -0.0244      0.4278      0.3103
        93         0.1659     -0.2218      0.0914
        94         0.3693     -0.1372     -0.0059
        95        -0.0287     -0.0416      0.0226
        96        -0.0212      0.0352     -0.2280
        97        -0.0823      0.2067      0.3333
        98         0.1311     -0.3305      0.1182
        99         0.1237      0.0089     -1.1277
       100         0.1203     -0.0691      0.4400
       101        -0.0877      0.2113      0.2826
       102         0.0282      0.2154     -0.8416
       103        -0.1103     -0.1122     -0.6674
       104         0.1806     -0.0465      0.0155
       105         0.1716     -0.0817      0.0671
       106         0.1291      0.1753      0.2208
       107         0.1528     -0.0586     -0.2799
       108        -0.2908     -0.3285     -0.2480
       109        -0.1259     -0.1980     -0.6156
       110        -0.1056      0.0601     -1.8265
       111        -0.2350      0.2197     -0.1631
       112         0.1387     -0.0855     -0.9720
       113         0.1763      0.4266     -0.1532
       114         0.0576     -0.0988     -1.2512
       115         0.1358     -0.2390     -1.3197
       116        -0.0558      0.0367      0.3609
       117         0.0393      0.0821      0.1589
       118        -0.0189     -0.1147     -0.1050
       119         0.1079      0.8275     -0.2272
       120         0.3205      0.3447      0.0953
       121        -0.3288     -0.9233      0.1093
       122         0.0655      0.1256      0.0476
       123        -0.4719      0.1175      1.1094
       124         0.1930      0.0933     -0.0078
       125         0.0904      0.2120     -0.3502
       126         0.0843      0.6687      0.2171
       127         0.0663     -0.4138      0.1707
       128         0.3318      0.0848      0.0973
       129        -0.0292      0.4241     -0.0964
       130         0.0313      0.0585      0.1997
       131         0.4325     -0.1371      0.2142
[...]
    34  H    0.444274  -0.051010   0.012043   0.000000  -0.000000  -0.000005
    35  H   -0.048077   0.436201  -0.048352   0.000000  -0.000000   0.000004
    36  H    0.006868  -0.033063   0.429171   0.000000  -0.000000   0.004647
    37  H    0.000000  -0.000000  -0.000000   0.393461  -0.027084   0.000002
    38  H    0.000000  -0.000000   0.000000   0.396616  -0.026112   0.000000
    39  H    0.000000  -0.000000   0.000000  -0.035824   0.408778   0.000000
    40  H   -0.000000   0.000000  -0.000000  -0.033829   0.411672   0.000000
    41  H   -0.000000   0.000000   0.000000  -0.035581   0.414580  -0.000000
    42  H    0.000020  -0.000070   0.001594   0.000003  -0.000000   0.409404
    43  H   -0.000272   0.002325   0.005097   0.000000  -0.000000   0.388623
    44  H   -0.000005   0.000004   0.000105   0.000000   0.000000  -0.043176
    45  H    0.000002  -0.000029  -0.000038   0.000000  -0.000000  -0.036143
    46  H    0.000056   0.000217   0.003974  -0.000000   0.000000  -0.027061
              25         26         27         28         29         30
     1  C    0.002645   0.447459  -0.057798  -0.003942  -0.000045   0.000001
     2  C   -0.001449  -0.031726   0.429495  -0.025752   0.000014  -0.000000
     3  C   -0.010106   0.002021  -0.070673   0.444240   0.000001   0.000000
     4  C    0.006405   0.004468   0.001057  -0.081762  -0.000000   0.000000
     5  C    0.000043  -0.073101   0.001090   0.004719   0.000288   0.000014
     6  S   -0.000286   0.000015   0.000059  -0.005063   0.000000  -0.000000
     7  C    0.000974   0.000004  -0.000039   0.000176   0.000000  -0.000000
     8  C    0.001556   0.000003  -0.000056   0.000139   0.000000   0.000000
     9  N   -0.035614  -0.000004  -0.001453   0.002528   0.000000  -0.000000
    10  S   -0.000524   0.003799  -0.013389   0.000012  -0.004658  -0.000217
    11  C   -0.000017  -0.000748  -0.000422   0.000005  -0.061827   0.011894
    12  C    0.000002   0.000687   0.000393   0.000008   0.017445  -0.003203
    13  N    0.000003  -0.005726   0.000050   0.000003  -0.000042   0.000026
    14  C   -0.000000  -0.000013  -0.000079   0.000000   0.445708  -0.055447
    15  C   -0.000000   0.000003   0.000007   0.000000  -0.051754   0.443533
    16  C    0.000000  -0.000005  -0.000003  -0.000000   0.011067  -0.050532
    17  C    0.000000   0.000095   0.000051   0.000000  -0.004748   0.011791
    18  C   -0.000005   0.000000   0.000004  -0.000056  -0.000000  -0.000000
    19  C   -0.000003  -0.000000   0.000000   0.000000   0.000000   0.000000
    20  C    0.000771  -0.000000  -0.000001  -0.000000  -0.000000   0.000000
    21  C   -0.005388   0.000000   0.000110   0.000037  -0.000000   0.000000
    22  C   -0.000000   0.003322   0.000203   0.000076   0.000014  -0.000003
    23  C    0.000000  -0.003318  -0.000052  -0.000028  -0.000001   0.000001
    24  C    0.313587   0.000025   0.000284   0.000438   0.000000   0.000000
    25  C    4.991854  -0.000011  -0.003229  -0.000243  -0.000000  -0.000000
    26  H   -0.000011   0.459495   0.004371   0.003305  -0.000001   0.000000
    27  H   -0.003229   0.004371   0.521678   0.005484  -0.000009  -0.000000
    28  H   -0.000243   0.003305   0.005484   0.475082  -0.000000   0.000000
    29  H   -0.000000  -0.000001  -0.000009  -0.000000   0.473309  -0.006374
    30  H   -0.000000   0.000000  -0.000000   0.000000  -0.006374   0.481226
    31  H    0.000000  -0.000000  -0.000000   0.000000  -0.000124  -0.006293
    32  H    0.000000  -0.000009   0.000000   0.000000   0.000018  -0.000096
    33  H   -0.000001   0.000000   0.000000   0.000002   0.000000   0.000000
    34  H    0.000001   0.000000  -0.000000  -0.000000   0.000000   0.000000
    35  H    0.000002   0.000000   0.000000   0.000000  -0.000000   0.000000
    36  H   -0.003130  -0.000000  -0.000001   0.000001   0.000000   0.000000
    37  H   -0.000000   0.000863   0.000062   0.000001  -0.000001   0.000000
    38  H    0.000000   0.000308   0.000000   0.000000   0.000002  -0.000001
    39  H    0.000000   0.000121   0.000000   0.000001   0.000000  -0.000000
    40  H   -0.000000   0.000203   0.000003  -0.000000  -0.000000   0.000000
    41  H    0.000000   0.000307  -0.000002   0.000013   0.000000  -0.000000
    42  H   -0.033535  -0.000062  -0.005273   0.000108   0.000000  -0.000000
    43  H   -0.026146   0.000002   0.000871   0.000004  -0.000000  -0.000000
    44  H    0.418529   0.000002   0.002088  -0.000051   0.000000  -0.000000
    45  H    0.409984   0.000000   0.000393   0.000001   0.000000  -0.000000
    46  H    0.404936  -0.000000   0.000325   0.000010   0.000000  -0.000000
              31         32         33         34         35         36
     1  C   -0.000002  -0.000033   0.000000  -0.000000  -0.000000   0.000000
     2  C    0.000000   0.000006   0.000001   0.000000   0.000000  -0.000007
     3  C   -0.000000  -0.000000  -0.000007  -0.000000  -0.000001   0.000023
     4  C   -0.000000   0.000000   0.000248   0.000008   0.000016  -0.000578
     5  C    0.000018  -0.000618   0.000000  -0.000000   0.000000   0.000000
     6  S   -0.000000  -0.000000  -0.004411  -0.000190   0.000023  -0.000322
     7  C   -0.000000   0.000000  -0.061249   0.012193  -0.001813   0.006774
     8  C   -0.000000   0.000000   0.017322  -0.003562   0.010912  -0.040703
     9  N    0.000000   0.000000  -0.000074   0.000030  -0.000120  -0.003653
    10  S    0.000023  -0.000235   0.000000   0.000000  -0.000000   0.000000
    11  C   -0.001925   0.007460  -0.000000   0.000000  -0.000000   0.000000
    12  C    0.011060  -0.042936   0.000000  -0.000000   0.000000   0.000000
    13  N   -0.000107  -0.003065   0.000000  -0.000000   0.000000   0.000000
    14  C    0.009854  -0.001249  -0.000000   0.000000  -0.000000   0.000000
    15  C   -0.048394   0.007216   0.000000  -0.000000   0.000000  -0.000000
    16  C    0.436787  -0.034068  -0.000000   0.000000  -0.000000   0.000000
    17  C   -0.048962   0.431848   0.000000  -0.000000   0.000000  -0.000000
    18  C   -0.000000   0.000000   0.445452  -0.055854   0.009679  -0.001021
    19  C   -0.000000   0.000000  -0.052062   0.444274  -0.048077   0.006868
    20  C    0.000000  -0.000000   0.011074  -0.051010   0.436201  -0.033063
    21  C   -0.000000   0.000000  -0.004632   0.012043  -0.048352   0.429171
    22  C   -0.000003   0.003062   0.000000   0.000000   0.000000   0.000000
    23  C    0.000002  -0.001706  -0.000000  -0.000000  -0.000000  -0.000000
    24  C    0.000000  -0.000000   0.000020  -0.000005   0.000004   0.004647
    25  C    0.000000   0.000000  -0.000001   0.000001   0.000002  -0.003130
    26  H   -0.000000  -0.000009   0.000000   0.000000   0.000000  -0.000000
    27  H   -0.000000   0.000000   0.000000  -0.000000   0.000000  -0.000001
    28  H    0.000000   0.000000   0.000002  -0.000000   0.000000   0.000001
    29  H   -0.000124   0.000018   0.000000   0.000000  -0.000000   0.000000
    30  H   -0.006293  -0.000096   0.000000   0.000000   0.000000   0.000000
    31  H    0.479683  -0.005824   0.000000  -0.000000  -0.000000  -0.000000
    32  H   -0.005824   0.457091  -0.000000  -0.000000   0.000000   0.000000
    33  H    0.000000  -0.000000   0.473389  -0.006500  -0.000123   0.000019
    34  H   -0.000000  -0.000000  -0.006500   0.480821  -0.006299  -0.000087
    35  H   -0.000000   0.000000  -0.000123  -0.006299   0.479059  -0.005776
    36  H   -0.000000   0.000000   0.000019  -0.000087  -0.005776   0.453035
    37  H   -0.000001   0.000389   0.000000  -0.000000   0.000000  -0.000000
    38  H   -0.000007  -0.001288   0.000000  -0.000000  -0.000000  -0.000000
    39  H    0.000000   0.000105   0.000000  -0.000000   0.000000  -0.000000
    40  H   -0.000001   0.000591   0.000000   0.000000   0.000000  -0.000000
    41  H   -0.000000   0.000037   0.000000  -0.000000  -0.000000   0.000000
    42  H   -0.000000  -0.000000  -0.000001   0.000000  -0.000001   0.000457
    43  H    0.000000   0.000000   0.000003  -0.000000  -0.000018  -0.001122
    44  H   -0.000000   0.000000   0.000000  -0.000000  -0.000001   0.000117
    45  H   -0.000000   0.000000   0.000000  -0.000000   0.000000   0.000215
    46  H   -0.000000   0.000000  -0.000000   0.000000   0.000001   0.000865
              37         38         39         40         41         42
     1  C    0.019965  -0.000419  -0.000322   0.000612   0.003671   0.001329
     2  C    0.003184  -0.000031  -0.000035   0.000010   0.000308  -0.004705
     3  C   -0.000191   0.000003   0.000009  -0.000004   0.000006   0.012852
     4  C    0.000049  -0.000000   0.000000   0.000000  -0.000000  -0.015517
     5  C   -0.033759   0.008463   0.000379  -0.001190  -0.000430  -0.000163
     6  S    0.000000  -0.000000  -0.000000   0.000000   0.000000   0.000227
     7  C    0.000000  -0.000000   0.000000   0.000000   0.000000  -0.000189
     8  C   -0.000000  -0.000000   0.000000   0.000000  -0.000000   0.006915
     9  N    0.000000  -0.000000  -0.000000   0.000000   0.000000  -0.028401
    10  S    0.000024  -0.000424   0.000021  -0.000018  -0.000194   0.000982
    11  C   -0.000612  -0.000708  -0.000028   0.000155  -0.000108   0.000012
    12  C    0.008081  -0.018540  -0.000055   0.000491  -0.001120  -0.000003
    13  N   -0.017526  -0.017533   0.005702  -0.001100  -0.000505   0.000003
    14  C   -0.000028   0.000320  -0.000002  -0.000057   0.000019   0.000000
    15  C    0.000018  -0.000301   0.000001   0.000038  -0.000006  -0.000000
    16  C   -0.000094   0.002898  -0.000010   0.000046   0.000029   0.000000
    17  C    0.001407   0.004063  -0.000029   0.003039   0.000312  -0.000000
    18  C    0.000000  -0.000000  -0.000000   0.000000   0.000000  -0.000035
    19  C    0.000000   0.000000   0.000000  -0.000000  -0.000000   0.000020
    20  C   -0.000000  -0.000000  -0.000000   0.000000   0.000000  -0.000070
    21  C   -0.000000   0.000000   0.000000  -0.000000   0.000000   0.001594
    22  C    0.393461   0.396616  -0.035824  -0.033829  -0.035581   0.000003
    23  C   -0.027084  -0.026112   0.408778   0.411672   0.414580  -0.000000
    24  C    0.000002   0.000000   0.000000   0.000000  -0.000000   0.409404
    25  C   -0.000000   0.000000   0.000000  -0.000000   0.000000  -0.033535
    26  H    0.000863   0.000308   0.000121   0.000203   0.000307  -0.000062
    27  H    0.000062   0.000000   0.000000   0.000003  -0.000002  -0.005273
    28  H    0.000001   0.000000   0.000001  -0.000000   0.000013   0.000108
    29  H   -0.000001   0.000002   0.000000  -0.000000   0.000000   0.000000
    30  H    0.000000  -0.000001  -0.000000   0.000000  -0.000000  -0.000000
    31  H   -0.000001  -0.000007   0.000000  -0.000001  -0.000000  -0.000000
    32  H    0.000389  -0.001288   0.000105   0.000591   0.000037  -0.000000
    33  H    0.000000   0.000000   0.000000   0.000000   0.000000  -0.000001
    34  H   -0.000000  -0.000000  -0.000000   0.000000  -0.000000   0.000000
    35  H    0.000000  -0.000000   0.000000   0.000000  -0.000000  -0.000001
    36  H   -0.000000  -0.000000  -0.000000  -0.000000   0.000000   0.000457
    37  H    0.500836  -0.019232  -0.001253   0.004446  -0.004668  -0.000002
    38  H   -0.019232   0.500194  -0.001459  -0.004795   0.004375  -0.000000
    39  H   -0.001253  -0.001459   0.503606  -0.019066  -0.019435  -0.000000
    40  H    0.004446  -0.004795  -0.019066   0.503584  -0.021515   0.000000
    41  H   -0.004668   0.004375  -0.019435  -0.021515   0.502512  -0.000000
    42  H   -0.000002  -0.000000  -0.000000   0.000000  -0.000000   0.482691
    43  H   -0.000000  -0.000000  -0.000000   0.000000   0.000000  -0.011466
    44  H   -0.000000  -0.000000  -0.000000  -0.000000   0.000000  -0.002788
    45  H   -0.000000  -0.000000  -0.000000   0.000000   0.000000  -0.001621
    46  H    0.000000   0.000000  -0.000000  -0.000000  -0.000000   0.003729
              43         44         45         46
     1  C   -0.000023   0.001016  -0.000174  -0.000016
     2  C    0.001694   0.002567   0.000260  -0.000568
     3  C   -0.001187  -0.004965  -0.000036   0.001075
     4  C    0.007275   0.003924  -0.000077  -0.001214
     5  C    0.000002  -0.000068   0.000063  -0.000008
     6  S   -0.000387  -0.000193   0.000023  -0.000003
     7  C   -0.000744   0.000019  -0.000008   0.000213
     8  C   -0.016297  -0.000793   0.000164  -0.001004
     9  N   -0.016317   0.000331   0.005516  -0.001503
    10  S    0.000004   0.000707   0.000211   0.000038
    11  C   -0.000000  -0.000006  -0.000001   0.000000
    12  C    0.000000   0.000001  -0.000000  -0.000000
    13  N    0.000000   0.000002   0.000000  -0.000000
    14  C   -0.000000  -0.000001   0.000001   0.000000
    15  C    0.000000  -0.000000  -0.000000  -0.000000
    16  C   -0.000000   0.000000   0.000000   0.000000
    17  C    0.000000  -0.000000  -0.000000  -0.000000
    18  C    0.000274   0.000023  -0.000003  -0.000090
    19  C   -0.000272  -0.000005   0.000002   0.000056
    20  C    0.002325   0.000004  -0.000029   0.000217
    21  C    0.005097   0.000105  -0.000038   0.003974
    22  C    0.000000   0.000000   0.000000  -0.000000
    23  C   -0.000000   0.000000  -0.000000   0.000000
    24  C    0.388623  -0.043176  -0.036143  -0.027061
    25  C   -0.026146   0.418529   0.409984   0.404936
    26  H    0.000002   0.000002   0.000000  -0.000000
    27  H    0.000871   0.002088   0.000393   0.000325
    28  H    0.000004  -0.000051   0.000001   0.000010
    29  H   -0.000000   0.000000   0.000000   0.000000
    30  H   -0.000000  -0.000000  -0.000000  -0.000000
    31  H    0.000000  -0.000000  -0.000000  -0.000000
    32  H    0.000000   0.000000   0.000000   0.000000
    33  H    0.000003   0.000000   0.000000  -0.000000
    34  H   -0.000000  -0.000000  -0.000000   0.000000
    35  H   -0.000018  -0.000001   0.000000   0.000001
    36  H   -0.001122   0.000117   0.000215   0.000865
    37  H   -0.000000  -0.000000  -0.000000   0.000000
    38  H   -0.000000  -0.000000  -0.000000   0.000000
    39  H   -0.000000  -0.000000  -0.000000  -0.000000
    40  H    0.000000  -0.000000   0.000000  -0.000000
    41  H    0.000000   0.000000   0.000000  -0.000000
    42  H   -0.011466  -0.002788  -0.001621   0.003729
    43  H    0.489897   0.003775  -0.000705  -0.004963
    44  H    0.003775   0.499469  -0.019653  -0.020455
    45  H   -0.000705  -0.019653   0.501136  -0.017559
    46  H   -0.004963  -0.020455  -0.017559   0.494008
 Mulliken charges:
               1
     1  C   -0.437435
     2  C    0.012253
     3  C   -0.462267
     4  C    0.242197
     5  C    0.246153
     6  S    0.059203
     7  C   -0.009724
     8  C    0.207433
     9  N    0.100731
    10  S    0.018916
    11  C    0.007604
    12  C    0.197554
    13  N    0.095323
    14  C   -0.204462
    15  C   -0.177073
    16  C   -0.125026
    17  C   -0.331321
    18  C   -0.199452
    19  C   -0.171849
    20  C   -0.130540
    21  C   -0.331404
    22  C   -0.171305
    23  C   -0.435128
    24  C   -0.212080
    25  C   -0.431603
    26  H    0.183845
    27  H    0.184403
    28  H    0.180503
    29  H    0.181716
    30  H    0.173679
    31  H    0.174216
    32  H    0.183306
    33  H    0.181531
    34  H    0.174137
    35  H    0.174683
    36  H    0.187272
    37  H    0.171667
    38  H    0.173608
    39  H    0.158794
    40  H    0.156688
    41  H    0.157396
    42  H    0.183504
    43  H    0.179803
    44  H    0.159476
    45  H    0.158077
    46  H    0.165000
 Sum of Mulliken charges =   1.00000
 Mulliken charges with hydrogens summed into heavy atoms:
               1
     1  C   -0.253590
     2  C    0.196656
     3  C   -0.281764
     4  C    0.242197
     5  C    0.246153
     6  S    0.059203
     7  C   -0.009724
     8  C    0.207433
     9  N    0.100731
    10  S    0.018916
    11  C    0.007604
    12  C    0.197554
    13  N    0.095323
    14  C   -0.022746
    15  C   -0.003394
    16  C    0.049190
    17  C   -0.148015
    18  C   -0.017921
    19  C    0.002289
    20  C    0.044143
    21  C   -0.144132
    22  C    0.173970
    23  C    0.037749
    24  C    0.151227
    25  C    0.050950
 Electronic spatial extent (au):  <R**2>=          15556.2639
 Charge=              1.0000 electrons
 Dipole moment (field-independent basis, Debye):
    X=              1.1864    Y=              0.2502    Z=              1.2555  Tot=              1.7455
 Quadrupole moment (field-independent basis, Debye-Ang):
   XX=            -49.8883   YY=           -122.9692   ZZ=           -165.5288
   XY=             15.6998   XZ=              1.6978   YZ=              0.9485
 Traceless Quadrupole moment (field-independent basis, Debye-Ang):
   XX=             62.9071   YY=            -10.1738   ZZ=            -52.7334
   XY=             15.6998   XZ=              1.6978   YZ=              0.9485
 Octapole moment (field-independent basis, Debye-Ang**2):
  XXX=              9.0531  YYY=             -2.2131  ZZZ=              4.0074  XYY=             28.2188
  XXY=             -1.1266  XXZ=             -7.5669  XZZ=              2.2776  YZZ=              3.5126
  YYZ=              4.9917  XYZ=             30.6546
 Hexadecapole moment (field-independent basis, Debye-Ang**3):
 XXXX=         -13288.3625 YYYY=          -2278.7405 ZZZZ=           -323.7875 XXXY=            110.5412
 XXXZ=            165.1544 YYYX=             86.8593 YYYZ=             18.1345 ZZZX=             -0.2648
 ZZZY=             -3.1362 XXYY=          -2800.4022 XXZZ=          -3404.6032 YYZZ=           -493.0951
 XXYZ=             22.9115 YYXZ=            -12.4778 ZZXY=             37.7494
 N-N= 2.285648745017D+03 E-N=-8.579181783942D+03  KE= 1.711178483598D+03

 Test job not archived.
 1\1\GINC-CN03\SP\RPBEPBE TD-FC\def2TZVP\C21H21N2S2(1+)\2100011873\05-N
 ov-2023\0\\# td=(nstates=150) PBEPBE/def2TZVP IOp(3/76=1000003750) IOp
 (3/77=0625006250) IOp(3/78=1000010000) scrf(smd, solvent=ethanol)\\A-2
 \\1,1\C,0,1.185932,1.124188,0.259065\C,0,-0.064042,0.518894,0.184736\C
 ,0,-1.255062,1.232433,0.206071\C,0,-2.576908,0.775971,0.134368\C,0,2.3
 92634,0.431471,0.171283\S,0,-3.827667,1.970009,-0.187075\C,0,-5.077877
 ,0.744792,-0.134775\C,0,-4.509195,-0.50864,0.113846\N,0,-3.118372,-0.4
 58179,0.279721\S,0,2.505198,-1.300121,-0.125106\C,0,4.260315,-1.225762
 ,-0.102553\C,0,4.688784,0.08701,0.119416\N,0,3.627512,0.981655,0.28741
 1\C,0,5.159317,-2.267461,-0.279503\C,0,6.517913,-1.973596,-0.237257\C,
 0,6.95394,-0.663841,-0.025333\C,0,6.051566,0.378213,0.153458\C,0,-6.44
 6804,0.904176,-0.304215\C,0,-7.251229,-0.226106,-0.226408\C,0,-6.68974
 7,-1.482485,0.014868\C,0,-5.320051,-1.640504,0.18625\C,0,3.847144,2.41
 5669,0.55458\C,0,3.911762,3.249637,-0.717632\C,0,-2.369369,-1.660308,0
 .692423\C,0,-1.918854,-2.522991,-0.47911\H,0,1.228852,2.199196,0.37656
 2\H,0,-0.096636,-0.556945,0.072235\H,0,-1.165193,2.31437,0.224199\H,0,
 4.813961,-3.279951,-0.448352\H,0,7.240415,-2.768718,-0.37396\H,0,8.015
 538,-0.449707,-0.002068\H,0,6.406822,1.388085,0.306065\H,0,-6.875736,1
 .880738,-0.491225\H,0,-8.32188,-0.129159,-0.357431\H,0,-7.330326,-2.35
 4283,0.06736\H,0,-4.901973,-2.621689,0.363736\H,0,3.048585,2.754296,1.
 212168\H,0,4.77271,2.494849,1.122044\H,0,4.082538,4.295496,-0.452515\H
 ,0,4.728911,2.924468,-1.364544\H,0,2.978199,3.187215,-1.279982\H,0,-1.
 531667,-1.329317,1.302601\H,0,-3.027666,-2.224702,1.351768\H,0,-1.2761
 ,-1.972556,-1.168349\H,0,-1.359149,-3.379171,-0.096017\H,0,-2.775672,-
 2.899604,-1.040801\\Version=ES64L-G16RevC.02\State=1-A\HF=-1717.725720
 5\RMSD=4.467e-09\PG=C01 [X(C21H21N2S2)]\\@


 CHRISTMAS IS ON TOP OF A STEEP HILL.
 THE CLOSER YOU GET, THE STEEPER THE HILL IS.
          -- LINUS, OF PEANUTS
 Job cpu time:       3 days  8 hours 34 minutes 13.9 seconds.
 Elapsed time:       0 days  2 hours 51 minutes 52.8 seconds.
 File lengths (MBytes):  RWF=  33264 Int=      0 D2E=      0 Chk=   3408 Scr=     32
 Normal termination of Gaussian 16 at Sun Nov  5 15:17:45 2023.
