 Entering Gaussian System, Link 0=g16
 Initial command:
 /nfs-share/home/2100011873/Gaussian16_AVX2/g16/l1.exe "/nfs-share/home/2100011873/GaussTmp/Gau-141439.inp" -scrdir="/nfs-share/home/2100011873/GaussTmp/"
 Entering Link 1 = /nfs-share/home/2100011873/Gaussian16_AVX2/g16/l1.exe PID=    141440.
  
 Copyright (c) 1988-2021, Gaussian, Inc.  All Rights Reserved.
  
 This is part of the Gaussian(R) 16 program.  It is based on
 the Gaussian(R) 09 system (copyright 2009, Gaussian, Inc.),
 the Gaussian(R) 03 system (copyright 2003, Gaussian, Inc.),
 the Gaussian(R) 98 system (copyright 1998, Gaussian, Inc.),
 the Gaussian(R) 94 system (copyright 1995, Gaussian, Inc.),
 the Gaussian 92(TM) system (copyright 1992, Gaussian, Inc.),
 the Gaussian 90(TM) system (copyright 1990, Gaussian, Inc.),
 the Gaussian 88(TM) system (copyright 1988, Gaussian, Inc.),
 the Gaussian 86(TM) system (copyright 1986, Carnegie Mellon
 University), and the Gaussian 82(TM) system (copyright 1983,
 Carnegie Mellon University). Gaussian is a federally registered
 trademark of Gaussian, Inc.
  
 This software contains proprietary and confidential information,
 including trade secrets, belonging to Gaussian, Inc.
  
 This software is provided under written license and may be
 used, copied, transmitted, or stored only in accord with that
 written license.
  
 The following legend is applicable only to US Government
 contracts under FAR:
  
                    RESTRICTED RIGHTS LEGEND
  
 Use, reproduction and disclosure by the US Government is
 subject to restrictions as set forth in subparagraphs (a)
 and (c) of the Commercial Computer Software - Restricted
 Rights clause in FAR 52.227-19.
  
 Gaussian, Inc.
 340 Quinnipiac St., Bldg. 40, Wallingford CT 06492
  
  
 ---------------------------------------------------------------
 Warning -- This program may not be used in any manner that
 competes with the business of Gaussian, Inc. or will provide
 assistance to any competitor of Gaussian, Inc.  The licensee
 of this program is prohibited from giving any competitor of
 Gaussian, Inc. access to this program.  By using this program,
 the user acknowledges that Gaussian, Inc. is engaged in the
 business of creating and licensing software in the field of
 computational chemistry and represents and warrants to the
 licensee that it is not a competitor of Gaussian, Inc. and that
 it will not use this program in any manner prohibited above.
 ---------------------------------------------------------------
  

 Cite this work as:
 Gaussian 16, Revision C.02,
 M. J. Frisch, G. W. Trucks, H. B. Schlegel, G. E. Scuseria, 
 M. A. Robb, J. R. Cheeseman, G. Scalmani, V. Barone, 
 G. A. Petersson, H. Nakatsuji, X. Li, M. Caricato, A. V. Marenich, 
 J. Bloino, B. G. Janesko, R. Gomperts, B. Mennucci, H. P. Hratchian, 
 J. V. Ortiz, A. F. Izmaylov, J. L. Sonnenberg, D. Williams-Young, 
 F. Ding, F. Lipparini, F. Egidi, J. Goings, B. Peng, A. Petrone, 
 T. Henderson, D. Ranasinghe, V. G. Zakrzewski, J. Gao, N. Rega, 
 G. Zheng, W. Liang, M. Hada, M. Ehara, K. Toyota, R. Fukuda, 
 J. Hasegawa, M. Ishida, T. Nakajima, Y. Honda, O. Kitao, H. Nakai, 
 T. Vreven, K. Throssell, J. A. Montgomery, Jr., J. E. Peralta, 
 F. Ogliaro, M. J. Bearpark, J. J. Heyd, E. N. Brothers, K. N. Kudin, 
 V. N. Staroverov, T. A. Keith, R. Kobayashi, J. Normand, 
 K. Raghavachari, A. P. Rendell, J. C. Burant, S. S. Iyengar, 
 J. Tomasi, M. Cossi, J. M. Millam, M. Klene, C. Adamo, R. Cammi, 
 J. W. Ochterski, R. L. Martin, K. Morokuma, O. Farkas, 
 J. B. Foresman, and D. J. Fox, Gaussian, Inc., Wallingford CT, 2019.
 
 ******************************************
 Gaussian 16:  ES64L-G16RevC.02  7-Dec-2021
                 5-Nov-2023 
 ******************************************
 %nprocshared=36
 Will use up to   36 processors via shared memory.
 %mem=128GB
 ----------------------------------------------------------------------
 # td=(nstates=150) PBEPBE/def2TZVP IOp(3/76=1000003750) IOp(3/77=06250
 06250) IOp(3/78=1000010000) scrf(smd, solvent=ethanol)
 ----------------------------------------------------------------------
 1/38=1,172=1/1;
 2/12=2,17=6,18=5,40=1/2;
 3/5=44,7=101,11=9,25=1,30=1,70=32201,72=4,74=1009,76=1000003750,77=625006250,78=1000010000/1,2,3,8;
 4//1;
 5/5=2,38=5,53=4/2;
 8/6=1,10=1,108=150/1;
 9/41=150,42=1,70=2/14;
 6/7=2,8=2,9=2,10=2/1;
 99/5=1,9=1/99;
 ---
 A-4
 ---
 Symbolic Z-matrix:
 Charge =  1 Multiplicity = 1
 C                    -3.66371  -1.05195  -0.11156 
 C                    -2.38964  -0.47998  -0.08346 
 C                    -1.19497  -1.195    -0.06404 
 C                     0.05835  -0.57832  -0.03561 
 C                    -4.85534  -0.32376  -0.12489 
 S                    -4.92666   1.43671  -0.06062 
 C                    -6.68823   1.40203  -0.08329 
 C                    -7.15496   0.07936  -0.13945 
 N                    -6.11186  -0.85727  -0.18359 
 C                    -7.56515   2.4827   -0.04892 
 C                    -8.93496   2.22022  -0.06579 
 C                    -9.40707   0.90276  -0.11322 
 C                    -8.52936  -0.17953  -0.14882 
 C                    -6.36628  -2.30687  -0.24831 
 C                    -6.46714  -2.95588   1.13326 
 C                     1.28216  -1.24609  -0.01605 
 C                     2.51113  -0.58289   0.01194 
 C                     3.74122  -1.24435  -0.00844 
 C                     5.05244  -0.74902   0.00881 
 S                     6.36259  -1.86699  -0.36529 
 C                     7.56298  -0.60081  -0.16552 
 C                     6.94102   0.61236   0.16985 
 N                     5.54483   0.4953    0.28326 
 C                     8.94627  -0.69554  -0.30211 
 C                     9.70836   0.45414  -0.1007 
 C                     9.09298   1.66866   0.22877 
 C                     7.70945   1.76455   0.3665 
 C                     4.73281   1.62303   0.77014 
 C                     4.28228   2.56989  -0.34424 
 H                    -3.73183  -2.13483  -0.11343 
 H                    -2.31025   0.60799  -0.07629 
 H                    -1.23762  -2.28343  -0.07261 
 H                     0.07916   0.51298  -0.02766 
 H                    -7.19294   3.50135  -0.00844 
 H                    -9.63821   3.04629  -0.03843 
 H                    -10.47604   0.71486  -0.1197 
 H                    -8.91454  -1.19267  -0.17489 
 H                    -7.28921  -2.44204  -0.81662 
 H                    -5.57073  -2.7575   -0.84565 
 H                    -6.66636  -4.02676   1.02338 
 H                    -5.53664  -2.83556   1.69652 
 H                    -7.28005  -2.51465   1.718 
 H                     1.27987  -2.33528  -0.02423 
 H                     2.47239   0.50228   0.01364 
 H                     3.69108  -2.32677  -0.1054 
 H                     9.41663  -1.63929  -0.55871 
 H                     10.78759   0.40544  -0.2035 
 H                     9.70031   2.55586   0.37729 
 H                     7.25129   2.71614   0.61119 
 H                     3.88711   1.20264   1.31689 
 H                     5.34278   2.15493   1.50515 
 H                     3.66872   2.05491  -1.08995 
 H                     3.6925    3.38719   0.08394 
 H                     5.14149   3.00595  -0.86259 
 
 Stoichiometry    C25H25N2S2(1+)
 Framework group  C1[X(C25H25N2S2)]
 Deg. of freedom   156
 Full point group                 C1      NOp   1
 Largest Abelian subgroup         C1      NOp   1
 Largest concise Abelian subgroup C1      NOp   1
                         Standard orientation:                         
 ---------------------------------------------------------------------
 Center     Atomic      Atomic             Coordinates (Angstroms)
 Number     Number       Type             X           Y           Z
 ---------------------------------------------------------------------
      1          6           0       -3.663712   -1.051948   -0.111557
      2          6           0       -2.389638   -0.479979   -0.083458
      3          6           0       -1.194967   -1.195004   -0.064041
      4          6           0        0.058349   -0.578322   -0.035613
      5          6           0       -4.855344   -0.323764   -0.124892
      6         16           0       -4.926662    1.436711   -0.060618
      7          6           0       -6.688233    1.402029   -0.083292
      8          6           0       -7.154955    0.079357   -0.139452
      9          7           0       -6.111858   -0.857268   -0.183590
     10          6           0       -7.565153    2.482703   -0.048916
     11          6           0       -8.934956    2.220220   -0.065794
     12          6           0       -9.407072    0.902760   -0.113224
     13          6           0       -8.529361   -0.179533   -0.148820
     14          6           0       -6.366284   -2.306872   -0.248314
     15          6           0       -6.467137   -2.955883    1.133259
     16          6           0        1.282162   -1.246091   -0.016052
     17          6           0        2.511127   -0.582889    0.011938
     18          6           0        3.741215   -1.244345   -0.008435
     19          6           0        5.052439   -0.749020    0.008808
     20         16           0        6.362590   -1.866987   -0.365292
     21          6           0        7.562983   -0.600806   -0.165520
     22          6           0        6.941017    0.612357    0.169846
     23          7           0        5.544832    0.495298    0.283261
     24          6           0        8.946272   -0.695535   -0.302110
     25          6           0        9.708364    0.454142   -0.100703
     26          6           0        9.092982    1.668657    0.228770
     27          6           0        7.709445    1.764545    0.366500
     28          6           0        4.732809    1.623027    0.770139
     29          6           0        4.282282    2.569892   -0.344236
     30          1           0       -3.731831   -2.134826   -0.113428
     31          1           0       -2.310249    0.607987   -0.076294
     32          1           0       -1.237617   -2.283434   -0.072611
     33          1           0        0.079156    0.512977   -0.027655
     34          1           0       -7.192939    3.501353   -0.008437
     35          1           0       -9.638205    3.046285   -0.038434
     36          1           0      -10.476042    0.714855   -0.119701
     37          1           0       -8.914544   -1.192671   -0.174894
     38          1           0       -7.289207   -2.442036   -0.816617
     39          1           0       -5.570728   -2.757498   -0.845647
     40          1           0       -6.666359   -4.026758    1.023381
     41          1           0       -5.536643   -2.835556    1.696522
     42          1           0       -7.280055   -2.514652    1.717995
     43          1           0        1.279871   -2.335280   -0.024232
     44          1           0        2.472390    0.502280    0.013643
     45          1           0        3.691082   -2.326769   -0.105404
     46          1           0        9.416627   -1.639291   -0.558710
     47          1           0       10.787594    0.405440   -0.203502
     48          1           0        9.700309    2.555856    0.377290
     49          1           0        7.251286    2.716142    0.611187
     50          1           0        3.887111    1.202637    1.316886
     51          1           0        5.342782    2.154926    1.505154
     52          1           0        3.668719    2.054906   -1.089954
     53          1           0        3.692500    3.387191    0.083941
     54          1           0        5.141488    3.005946   -0.862588
 ---------------------------------------------------------------------
 Rotational constants (GHZ):           0.5052897           0.0306476           0.0290656
 Standard basis: def2TZVP (5D, 7F)
 There are  1206 symmetry adapted cartesian basis functions of A   symmetry.
 There are  1061 symmetry adapted basis functions of A   symmetry.
  1061 basis functions,  1715 primitive gaussians,  1206 cartesian basis functions
   110 alpha electrons      110 beta electrons
       nuclear repulsion energy      2585.8618479399 Hartrees.
 NAtoms=   54 NActive=   54 NUniq=   54 SFac= 1.00D+00 NAtFMM=   60 NAOKFM=F Big=F
 Integral buffers will be    131072 words long.
 Regular integral format.
 Two-electron integral symmetry is turned on.
 ------------------------------------------------------------------------------
 Polarizable Continuum Model (PCM)
 =================================
 Model                : PCM.
 Atomic radii         : SMD-Coulomb.
 Polarization charges : Total charges.
 Charge compensation  : None.
 Solution method      : On-the-fly selection.
 Cavity type          : VdW (van der Waals Surface) (Alpha=1.000).
 Cavity algorithm     : GePol (No added spheres)
                        Default sphere list used, NSphG=   54.
                        Lebedev-Laikov grids with approx.  5.0 points / Ang**2.
                        Smoothing algorithm: York/Karplus (Gamma=1.0000).
                        Polarization charges: spherical gaussians, with
                                              point-specific exponents (IZeta= 3).
                        Self-potential: point-specific (ISelfS= 7).
                        Self-field    : sphere-specific E.n sum rule (ISelfD= 2).
 Solvent              : Ethanol, Eps=  24.852000 Eps(inf)=   1.852593
 ------------------------------------------------------------------------------
 ------------------------------------------------------------------------------
 Atomic radii for non-electrostatic terms: SMD-CDS.
 ------------------------------------------------------------------------------
 Nuclear repulsion after PCM non-electrostatic terms =     2585.8550298034 Hartrees.
 One-electron integrals computed using PRISM.
   1 Symmetry operations used in ECPInt.
 ECPInt:  NShTT=   89676 NPrTT=  277881 LenC2=   56315 LenP2D=  119243.
 LDataN:  DoStor=T MaxTD1= 6 Len=  172
 NBasis=  1061 RedAO= T EigKep=  7.12D-06  NBF=  1061
 NBsUse=  1061 1.00D-06 EigRej= -1.00D+00 NBFU=  1061
 ExpMin= 9.52D-02 ExpMax= 6.07D+04 ExpMxC= 2.07D+03 IAcc=3 IRadAn=         5 AccDes= 0.00D+00
 Harris functional with IExCor= 1009 and IRadAn=       5 diagonalized for initial guess.
 HarFok:  IExCor= 1009 AccDes= 0.00D+00 IRadAn=         5 IDoV= 1 UseB2=F ITyADJ=14
 ICtDFT=  3500011 ScaDFX=  1.000000  1.000000  1.000000  1.000000
 FoFCou: FMM=F IPFlag=           0 FMFlag=      100000 FMFlg1=           0
         NFxFlg=           0 DoJE=T BraDBF=F KetDBF=T FulRan=T
         wScrn=  0.000000 ICntrl=       500 IOpCl=  0 I1Cent=   200000004 NGrid=           0
         NMat0=    1 NMatS0=      1 NMatT0=    0 NMatD0=    1 NMtDS0=    0 NMtDT0=    0
 Petite list used in FoFCou.
 Requested convergence on RMS density matrix=1.00D-08 within 128 cycles.
 Requested convergence on MAX density matrix=1.00D-06.
 Requested convergence on             energy=1.00D-06.
 No special actions if energy rises.
 Inv3:  Mode=1 IEnd=    53425200.
 Iteration    1 A*A^-1 deviation from unit magnitude is 3.33D-15 for    321.
 Iteration    1 A*A^-1 deviation from orthogonality  is 2.11D-15 for   1923    476.
 Iteration    1 A^-1*A deviation from unit magnitude is 3.33D-15 for    321.
 Iteration    1 A^-1*A deviation from orthogonality  is 4.21D-15 for    636    388.
 Error on total polarization charges =  0.06756
 SCF Done:  E(RPBE+HF-PBE) =  -1872.41112666     A.U. after   13 cycles
            NFock= 13  Conv=0.86D-08     -V/T= 2.0042
 SMD-CDS (non-electrostatic) energy       (kcal/mol) =      -4.28
 (included in total energy above)
 DoSCS=F DFT=T ScalE2(SS,OS)=  1.000000  1.000000
 ExpMin= 9.52D-02 ExpMax= 6.07D+04 ExpMxC= 2.07D+03 IAcc=3 IRadAn=         5 AccDes= 0.00D+00
 HarFok:  IExCor=  205 AccDes= 0.00D+00 IRadAn=         5 IDoV=-2 UseB2=F ITyADJ=14
 ICtDFT= 12500011 ScaDFX=  1.000000  1.000000  1.000000  1.000000
 GSVD:  LWork=       -1665 too small for GESVD, short by        7400 words or        7400 for optimal perf.
 Range of M.O.s used for correlation:    38  1061
 NBasis=  1061 NAE=   110 NBE=   110 NFC=    37 NFV=     0
 NROrb=   1024 NOA=    73 NOB=    73 NVA=   951 NVB=   951

 **** Warning!!: The largest alpha MO coefficient is  0.39204322D+02

 NEqPCM:  Using non-equilibrium solvation (IEInf=1, Eps=  24.8520, EpsInf=   1.8526)
 Inv3:  Mode=1 IEnd=    53425200.
 Iteration    1 A*A^-1 deviation from unit magnitude is 3.33D-15 for   3435.
 Iteration    1 A*A^-1 deviation from orthogonality  is 1.83D-15 for   1281    176.
 Iteration    1 A^-1*A deviation from unit magnitude is 3.11D-15 for   3435.
 Iteration    1 A^-1*A deviation from orthogonality  is 2.70D-15 for   1749    718.
 Orbital symmetries:
       Occupied  (A) (A) (A) (A) (A) (A) (A) (A) (A) (A) (A) (A)
                 (A) (A) (A) (A) (A) (A) (A) (A) (A) (A) (A) (A)
                 (A) (A) (A) (A) (A) (A) (A) (A) (A) (A) (A) (A)
                 (A) (A) (A) (A) (A) (A) (A) (A) (A) (A) (A) (A)
                 (A) (A) (A) (A) (A) (A) (A) (A) (A) (A) (A) (A)
                 (A) (A) (A) (A) (A) (A) (A) (A) (A) (A) (A) (A)
                 (A) (A) (A) (A) (A) (A) (A) (A) (A) (A) (A) (A)
                 (A) (A) (A) (A) (A) (A) (A) (A) (A) (A) (A) (A)
                 (A) (A) (A) (A) (A) (A) (A) (A) (A) (A) (A) (A)
                 (A) (A)
       Virtual   (A) (A) (A) (A) (A) (A) (A) (A) (A) (A) (A) (A)
                 (A) (A) (A) (A) (A) (A) (A) (A) (A) (A) (A) (A)
                 (A) (A) (A) (A) (A) (A) (A) (A) (A) (A) (A) (A)
                 (A) (A) (A) (A) (A) (A) (A) (A) (A) (A) (A) (A)
                 (A) (A) (A) (A) (A) (A) (A) (A) (A) (A) (A) (A)
                 (A) (A) (A) (A) (A) (A) (A) (A) (A) (A) (A) (A)
                 (A) (A) (A) (A) (A) (A) (A) (A) (A) (A) (A) (A)
                 (A) (A) (A) (A) (A) (A) (A) (A) (A) (A) (A) (A)
                 (A) (A) (A) (A) (A) (A) (A) (A) (A) (A) (A) (A)
                 (A) (A) (A) (A) (A) (A) (A) (A) (A) (A) (A) (A)
                 (A) (A) (A) (A) (A) (A) (A) (A) (A) (A) (A) (A)
                 (A) (A) (A) (A) (A) (A) (A) (A) (A) (A) (A) (A)
                 (A) (A) (A) (A) (A) (A) (A) (A) (A) (A) (A) (A)
                 (A) (A) (A) (A) (A) (A) (A) (A) (A) (A) (A) (A)
                 (A) (A) (A) (A) (A) (A) (A) (A) (A) (A) (A) (A)
                 (A) (A) (A) (A) (A) (A) (A) (A) (A) (A) (A) (A)
                 (A) (A) (A) (A) (A) (A) (A) (A) (A) (A) (A) (A)
                 (A) (A) (A) (A) (A) (A) (A) (A) (A) (A) (A) (A)
                 (A) (A) (A) (A) (A) (A) (A) (A) (A) (A) (A) (A)
                 (A) (A) (A) (A) (A) (A) (A) (A) (A) (A) (A) (A)
                 (A) (A) (A) (A) (A) (A) (A) (A) (A) (A) (A) (A)
                 (A) (A) (A) (A) (A) (A) (A) (A) (A) (A) (A) (A)
                 (A) (A) (A) (A) (A) (A) (A) (A) (A) (A) (A) (A)
                 (A) (A) (A) (A) (A) (A) (A) (A) (A) (A) (A) (A)
                 (A) (A) (A) (A) (A) (A) (A) (A) (A) (A) (A) (A)
                 (A) (A) (A) (A) (A) (A) (A) (A) (A) (A) (A) (A)
                 (A) (A) (A) (A) (A) (A) (A) (A) (A) (A) (A) (A)
                 (A) (A) (A) (A) (A) (A) (A) (A) (A) (A) (A) (A)
                 (A) (A) (A) (A) (A) (A) (A) (A) (A) (A) (A) (A)
                 (A) (A) (A) (A) (A) (A) (A) (A) (A) (A) (A) (A)
                 (A) (A) (A) (A) (A) (A) (A) (A) (A) (A) (A) (A)
                 (A) (A) (A) (A) (A) (A) (A) (A) (A) (A) (A) (A)
                 (A) (A) (A) (A) (A) (A) (A) (A) (A) (A) (A) (A)
                 (A) (A) (A) (A) (A) (A) (A) (A) (A) (A) (A) (A)
                 (A) (A) (A) (A) (A) (A) (A) (A) (A) (A) (A) (A)
                 (A) (A) (A) (A) (A) (A) (A) (A) (A) (A) (A) (A)
                 (A) (A) (A) (A) (A) (A) (A) (A) (A) (A) (A) (A)
                 (A) (A) (A) (A) (A) (A) (A) (A) (A) (A) (A) (A)
                 (A) (A) (A) (A) (A) (A) (A) (A) (A) (A) (A) (A)
                 (A) (A) (A) (A) (A) (A) (A) (A) (A) (A) (A) (A)
                 (A) (A) (A) (A) (A) (A) (A) (A) (A) (A) (A) (A)
                 (A) (A) (A) (A) (A) (A) (A) (A) (A) (A) (A) (A)
                 (A) (A) (A) (A) (A) (A) (A) (A) (A) (A) (A) (A)
                 (A) (A) (A) (A) (A) (A) (A) (A) (A) (A) (A) (A)
                 (A) (A) (A) (A) (A) (A) (A) (A) (A) (A) (A) (A)
                 (A) (A) (A) (A) (A) (A) (A) (A) (A) (A) (A) (A)
                 (A) (A) (A) (A) (A) (A) (A) (A) (A) (A) (A) (A)
                 (A) (A) (A) (A) (A) (A) (A) (A) (A) (A) (A) (A)
                 (A) (A) (A) (A) (A) (A) (A) (A) (A) (A) (A) (A)
                 (A) (A) (A) (A) (A) (A) (A) (A) (A) (A) (A) (A)
                 (A) (A) (A) (A) (A) (A) (A) (A) (A) (A) (A) (A)
                 (A) (A) (A) (A) (A) (A) (A) (A) (A) (A) (A) (A)
                 (A) (A) (A) (A) (A) (A) (A) (A) (A) (A) (A) (A)
                 (A) (A) (A) (A) (A) (A) (A) (A) (A) (A) (A) (A)
                 (A) (A) (A) (A) (A) (A) (A) (A) (A) (A) (A) (A)
                 (A) (A) (A) (A) (A) (A) (A) (A) (A) (A) (A) (A)
                 (A) (A) (A) (A) (A) (A) (A) (A) (A) (A) (A) (A)
                 (A) (A) (A) (A) (A) (A) (A) (A) (A) (A) (A) (A)
                 (A) (A) (A) (A) (A) (A) (A) (A) (A) (A) (A) (A)
                 (A) (A) (A) (A) (A) (A) (A) (A) (A) (A) (A) (A)
                 (A) (A) (A) (A) (A) (A) (A) (A) (A) (A) (A) (A)
                 (A) (A) (A) (A) (A) (A) (A) (A) (A) (A) (A) (A)
                 (A) (A) (A) (A) (A) (A) (A) (A) (A) (A) (A) (A)
                 (A) (A) (A) (A) (A) (A) (A) (A) (A) (A) (A) (A)
                 (A) (A) (A) (A) (A) (A) (A) (A) (A) (A) (A) (A)
                 (A) (A) (A) (A) (A) (A) (A) (A) (A) (A) (A) (A)
                 (A) (A) (A) (A) (A) (A) (A) (A) (A) (A) (A) (A)
                 (A) (A) (A) (A) (A) (A) (A) (A) (A) (A) (A) (A)
                 (A) (A) (A) (A) (A) (A) (A) (A) (A) (A) (A) (A)
                 (A) (A) (A) (A) (A) (A) (A) (A) (A) (A) (A) (A)
                 (A) (A) (A) (A) (A) (A) (A) (A) (A) (A) (A) (A)
                 (A) (A) (A) (A) (A) (A) (A) (A) (A) (A) (A) (A)
                 (A) (A) (A) (A) (A) (A) (A) (A) (A) (A) (A) (A)
                 (A) (A) (A) (A) (A) (A) (A) (A) (A) (A) (A) (A)
                 (A) (A) (A) (A) (A) (A) (A) (A) (A) (A) (A) (A)
                 (A) (A) (A) (A) (A) (A) (A) (A) (A) (A) (A) (A)
                 (A) (A) (A) (A) (A) (A) (A) (A) (A) (A) (A) (A)
                 (A) (A) (A) (A) (A) (A) (A) (A) (A) (A) (A) (A)
                 (A) (A) (A) (A) (A) (A) (A) (A) (A) (A) (A) (A)
                 (A) (A) (A)
   600 initial guesses have been made.
 Convergence on wavefunction:    0.001000000000000
 Iteration     1 Dimension   600 NMult     0 NNew    600
 CISAX will form   144 AO SS matrices at one time.
 New state      3 was old state      4
 New state      4 was old state      5
 New state      5 was old state      3
 New state      6 was old state     10
 New state      8 was old state      6
 New state      9 was old state     12
 New state     10 was old state      8
 New state     11 was old state      9
 New state     12 was old state     11
 New state     13 was old state     14
 New state     14 was old state     13
 New state     15 was old state     16
 New state     16 was old state     17
 New state     17 was old state     46
 New state     18 was old state     15
 New state     19 was old state     53
 New state     20 was old state     21
 New state     21 was old state     20
 New state     22 was old state     18
 New state     23 was old state     19
 New state     24 was old state     26
 New state     26 was old state     31
 New state     27 was old state     28
 New state     28 was old state     23
 New state     29 was old state     34
 New state     30 was old state     58
 New state     31 was old state     43
 New state     32 was old state     35
 New state     33 was old state     36
 New state     34 was old state     30
 New state     35 was old state     22
 New state     36 was old state     62
 New state     38 was old state     29
 New state     39 was old state     41
 New state     40 was old state     27
 New state     41 was old state     42
 New state     42 was old state     47
 New state     43 was old state     39
 New state     44 was old state     51
 New state     45 was old state     52
 New state     46 was old state     45
 New state     47 was old state     56
 New state     48 was old state     54
 New state     49 was old state     60
 New state     50 was old state     61
 New state     51 was old state     90
 New state     52 was old state     33
 New state     53 was old state     59
 New state     54 was old state     71
 New state     55 was old state     38
 New state     56 was old state     66
 New state     57 was old state     67
 New state     58 was old state     65
 New state     59 was old state     40
 New state     60 was old state     49
 New state     61 was old state     48
 New state     62 was old state     57
 New state     63 was old state     64
 New state     64 was old state     50
 New state     65 was old state     68
 New state     66 was old state     73
 New state     67 was old state    105
 New state     68 was old state     44
 No map to state     69
 New state     70 was old state     72
 New state     71 was old state     63
 New state     72 was old state     75
 New state     73 was old state     74
 New state     74 was old state    147
 New state     75 was old state     55
 New state     76 was old state    154
 New state     77 was old state     76
 New state     78 was old state     86
 New state     79 was old state     70
 New state     80 was old state     69
 New state     81 was old state     79
 New state     82 was old state     77
 New state     83 was old state     85
 New state     84 was old state     83
 New state     85 was old state     80
 New state     86 was old state     92
 New state     87 was old state     97
 New state     88 was old state     82
 New state     89 was old state     78
 New state     90 was old state     84
 New state     91 was old state     99
 New state     92 was old state     96
 New state     93 was old state    102
 New state     94 was old state    178
 New state     95 was old state     87
 New state     96 was old state     89
 New state     97 was old state     91
 New state     98 was old state    184
 New state     99 was old state     94
 New state    100 was old state    109
 New state    101 was old state    134
 New state    102 was old state    112
 New state    103 was old state     95
 New state    104 was old state     81
 New state    105 was old state    106
 New state    106 was old state    116
 New state    107 was old state     88
 New state    108 was old state    101
 New state    109 was old state     93
 New state    110 was old state    100
 New state    111 was old state    164
 New state    112 was old state    130
 New state    113 was old state     98
 New state    114 was old state    225
 New state    115 was old state    110
 New state    116 was old state    119
 New state    117 was old state    193
 New state    118 was old state    121
 New state    119 was old state    117
 New state    120 was old state    114
 New state    121 was old state    159
 New state    122 was old state    173
 New state    123 was old state    120
 New state    124 was old state    151
 New state    125 was old state    122
 New state    126 was old state    260
 New state    127 was old state    149
 New state    129 was old state    123
 New state    130 was old state    126
 New state    131 was old state    113
 New state    132 was old state    263
 New state    133 was old state    166
 New state    134 was old state    144
 New state    135 was old state    129
 New state    136 was old state    148
 New state    137 was old state    125
 New state    138 was old state    111
 New state    139 was old state    174
 New state    140 was old state    131
 New state    141 was old state    115
 New state    142 was old state    146
 New state    143 was old state    259
 New state    144 was old state    142
 New state    145 was old state    206
 New state    146 was old state    133
 New state    147 was old state    135
 New state    148 was old state    143
 New state    149 was old state    136
 New state    150 was old state    156
 Iteration     2 Dimension   900 NMult   600 NNew    300
 New state      3 was old state      5
 New state      4 was old state      3
 New state      5 was old state      4
 New state      6 was old state      7
 New state      7 was old state      6
 New state      9 was old state     10
 New state     10 was old state      9
 New state     13 was old state     14
 New state     14 was old state     13
 New state     17 was old state     18
 New state     18 was old state     20
 New state     19 was old state     21
 New state     20 was old state     17
 New state     21 was old state     19
 New state     22 was old state     28
 New state     24 was old state     22
 New state     25 was old state     24
 New state     26 was old state     29
 New state     27 was old state     34
 New state     28 was old state     25
 New state     29 was old state     31
 New state     30 was old state     26
 New state     31 was old state     27
 New state     32 was old state     30
 New state     34 was old state     39
 New state     35 was old state     32
 New state     36 was old state     35
 New state     37 was old state     38
 New state     38 was old state     36
 New state     39 was old state     43
 New state     40 was old state     37
 New state     41 was old state     40
 New state     43 was old state     41
 New state     44 was old state     46
 New state     46 was old state     44
 New state     47 was old state     55
 New state     48 was old state     59
 New state     49 was old state     47
 New state     50 was old state     60
 New state     51 was old state     50
 New state     52 was old state     54
 New state     53 was old state     49
 New state     54 was old state     51
 New state     55 was old state     53
 New state     56 was old state     52
 New state     57 was old state     64
 New state     58 was old state     57
 New state     59 was old state     71
 New state     60 was old state     56
 New state     61 was old state     58
 New state     63 was old state     61
 New state     64 was old state     70
 New state     65 was old state     66
 New state     66 was old state     63
 New state     68 was old state     65
 New state     69 was old state     68
 New state     70 was old state     73
 New state     71 was old state     72
 New state     72 was old state     69
 New state     73 was old state     74
 New state     74 was old state     77
 New state     75 was old state     82
 New state     77 was old state     79
 New state     78 was old state     80
 New state     79 was old state     75
 New state     80 was old state     78
 New state     82 was old state     85
 New state     83 was old state     89
 New state     85 was old state    104
 New state     86 was old state     83
 New state     88 was old state    102
 New state     89 was old state     92
 New state     90 was old state     86
 New state     91 was old state     88
 New state     92 was old state     99
 New state     93 was old state     90
 New state     95 was old state     91
 New state     96 was old state    105
 New state     97 was old state     93
 New state     98 was old state     95
 New state     99 was old state     96
 New state    100 was old state     98
 New state    102 was old state     97
 New state    103 was old state    100
 New state    104 was old state    106
 New state    105 was old state    125
 New state    106 was old state    109
 New state    107 was old state    103
 New state    108 was old state    113
 New state    109 was old state    107
 New state    110 was old state    108
 No map to state    111
 New state    113 was old state    110
 New state    115 was old state    111
 New state    116 was old state    127
 New state    117 was old state    115
 New state    118 was old state    116
 New state    119 was old state    117
 New state    120 was old state    126
 New state    121 was old state    119
 New state    122 was old state    118
 New state    123 was old state    122
 New state    124 was old state    120
 New state    125 was old state    128
 New state    126 was old state    124
 New state    127 was old state    121
 New state    128 was old state    131
 New state    129 was old state    123
 New state    130 was old state    129
 New state    131 was old state    130
 New state    132 was old state    133
 New state    133 was old state    134
 New state    134 was old state    132
 New state    135 was old state    143
 New state    136 was old state    137
 New state    137 was old state    141
 New state    138 was old state    136
 New state    139 was old state    135
 New state    140 was old state    138
 New state    141 was old state    146
 New state    142 was old state    139
 New state    143 was old state    142
 New state    144 was old state    140
 New state    145 was old state    144
 New state    146 was old state    145
 New state    148 was old state    149
 New state    149 was old state    148
 Iteration     3 Dimension  1200 NMult   900 NNew    300
 New state     38 was old state     39
 New state     39 was old state     38
 New state     58 was old state     59
 New state     59 was old state     58
 Iteration     4 Dimension  1498 NMult  1200 NNew    298
 Iteration     5 Dimension  1630 NMult  1498 NNew    132
 ***********************************************************************
 Excited states from <AA,BB:AA,BB> singles matrix:
 ***********************************************************************
 
 Ground to excited state transition densities written to RWF  633
 Ground to excited state transition electric dipole moments (Au):
       state          X           Y           Z        Dip. S.      Osc.
         1         7.5424     -0.1706      0.0457     56.9184      2.8961
         2        -0.2669     -0.3260     -0.0033      0.1775      0.0155
         3        -0.0953     -1.0898     -0.0004      1.1968      0.1144
         4        -0.2480     -0.2555      0.0001      0.1268      0.0129
         5        -0.1603      0.3329      0.0825      0.1433      0.0146
         6         0.8138      0.2086      0.0182      0.7062      0.0758
         7         0.1546      0.5480      0.1369      0.3429      0.0370
         8        -0.0212     -0.2150     -0.0218      0.0471      0.0051
         9         0.0160     -0.0404      0.0142      0.0021      0.0002
        10        -0.0648     -0.0205      0.0162      0.0049      0.0005
        11         0.2030     -0.4406     -0.0574      0.2387      0.0276
        12        -0.2046     -0.0457      0.0286      0.0447      0.0054
        13         0.0254      0.0676     -0.0075      0.0053      0.0007
        14        -0.3543     -0.0175     -0.0188      0.1262      0.0163
        15         0.0365      0.3197     -0.0092      0.1036      0.0142
        16        -0.4632      0.1115      0.0482      0.2294      0.0316
        17        -0.0051      0.0364      0.0126      0.0015      0.0002
        18        -0.3790     -0.1739      0.0715      0.1790      0.0256
        19         0.4430     -0.6086     -0.0444      0.5686      0.0817
        20         0.4928     -0.3594     -0.0346      0.3732      0.0538
        21        -0.1095      0.1538      0.0190      0.0360      0.0052
        22        -0.6441      0.4519      0.0732      0.6244      0.0917
        23         0.4243      0.1153     -0.0015      0.1933      0.0285
        24         1.0664      0.3186      0.0441      1.2407      0.1847
        25        -0.4472      0.5309      0.0924      0.4904      0.0733
        26        -0.9144     -0.5606     -0.1306      1.1675      0.1753
        27        -0.2457     -0.2094      0.0977      0.1138      0.0172
        28         0.1506      0.0868      0.0247      0.0308      0.0047
        29         0.1738      0.2187      0.0308      0.0790      0.0120
        30         0.0855      0.2713      0.0213      0.0813      0.0124
        31        -0.1172     -0.0834     -0.0000      0.0207      0.0032
        32         0.0154     -0.0029      0.0119      0.0004      0.0001
        33        -0.5589     -0.3133      0.0847      0.4177      0.0648
        34        -0.3270      0.1019      0.0893      0.1253      0.0195
        35         0.0184     -0.1149     -0.0185      0.0139      0.0022
        36        -0.2571      0.1898      0.1098      0.1142      0.0180
        37         0.7273      0.8035      0.0710      1.1795      0.1862
        38         0.2618      0.4628      0.0504      0.2853      0.0455
        39        -0.1113     -0.0307     -0.1054      0.0244      0.0039
        40        -0.5332      0.5118      0.1220      0.5611      0.0897
        41         1.0490     -0.8109      0.0302      1.7589      0.2821
        42        -0.0257     -0.1400      0.0033      0.0203      0.0034
        43         0.0223     -0.0716     -0.0425      0.0074      0.0012
        44         0.1581      0.0552      0.0639      0.0321      0.0054
        45         0.2560      0.1734     -0.0352      0.0969      0.0163
        46        -0.5523     -0.6177     -0.0912      0.6949      0.1174
        47        -0.5620     -0.7104     -0.1268      0.8366      0.1415
        48        -1.1708      0.0030     -0.0384      1.3724      0.2331
        49         0.2078      0.0548     -0.0317      0.0472      0.0081
        50        -0.5658      0.1868      0.0140      0.3552      0.0613
        51        -0.1633     -0.0908      0.0192      0.0353      0.0061
        52        -0.2407      0.0676      0.0184      0.0629      0.0109
        53        -0.0062     -0.0644     -0.0049      0.0042      0.0007
        54         0.0346      0.0734     -0.0022      0.0066      0.0011
        55        -0.2503      0.1502      0.0329      0.0863      0.0151
        56        -0.0157     -0.0112     -0.0037      0.0004      0.0001
        57        -0.0981      0.1469      0.1233      0.0464      0.0081
        58        -0.2617      0.3499      0.0354      0.1921      0.0338
        59        -0.0358      0.0497      0.0042      0.0038      0.0007
        60         0.0302     -0.0563      0.0058      0.0041      0.0007
        61        -0.1227      0.1909      0.0663      0.0559      0.0099
        62        -0.1194      0.2582      0.0311      0.0819      0.0146
        63         0.0799      0.2951     -0.0086      0.0936      0.0170
        64        -0.0547     -0.2752      0.0064      0.0788      0.0143
        65        -0.0567     -0.0654      0.1123      0.0201      0.0037
        66         0.0464      0.0573      0.1430      0.0259      0.0047
        67        -0.0535      0.0572     -0.0490      0.0085      0.0016
        68         0.0319     -0.1268      0.0008      0.0171      0.0031
        69        -0.1316      0.0437      0.0048      0.0193      0.0036
        70         0.0914     -0.1302      0.0323      0.0264      0.0049
        71        -0.0495     -0.0381      0.1443      0.0247      0.0046
        72        -0.0218     -0.0072      0.0342      0.0017      0.0003
        73         0.1330     -0.0152     -0.0432      0.0198      0.0037
        74        -0.0417     -0.0820     -0.0315      0.0095      0.0018
        75         0.0384      0.0484     -0.0210      0.0043      0.0008
        76        -0.2427      0.5102      0.0382      0.3207      0.0603
        77        -0.5534      0.1530      0.0530      0.3325      0.0627
        78         0.1197     -0.3084      0.0250      0.1101      0.0208
        79        -0.0199     -0.0224      0.0054      0.0009      0.0002
        80         0.0259      0.0593     -0.1058      0.0154      0.0029
        81         0.1537     -0.2967     -0.0592      0.1152      0.0219
        82         0.1866     -0.3659     -0.0842      0.1758      0.0334
        83        -0.2800      0.1172      0.0677      0.0967      0.0185
        84        -0.1131     -0.3918      0.0005      0.1663      0.0317
        85         0.2404      0.0541      0.0512      0.0634      0.0121
        86        -0.2382     -0.4059      0.0501      0.2240      0.0429
        87        -0.0620     -0.0123     -0.0481      0.0063      0.0012
        88         0.1517     -0.4735      0.0130      0.2474      0.0477
        89         0.4887     -0.4454     -0.1231      0.4524      0.0873
        90        -0.0201      0.0976      0.0001      0.0099      0.0019
        91        -0.0905     -0.0787     -0.1006      0.0245      0.0048
        92         0.3320      0.1696     -0.0091      0.1391      0.0271
        93        -0.0989     -0.0571     -0.1499      0.0355      0.0069
        94        -0.0008     -0.1395      0.1154      0.0328      0.0064
        95         0.1238      0.1505      0.0880      0.0457      0.0090
        96        -0.0290      0.2848     -0.0998      0.0919      0.0180
        97         0.2180     -0.2139      0.0568      0.0965      0.0190
        98        -0.0859      0.1002     -0.0852      0.0247      0.0049
        99         0.1080     -0.3686     -0.0940      0.1564      0.0309
       100        -0.0454      0.1850      0.1695      0.0650      0.0129
       101        -0.3830      0.3840      0.0304      0.2950      0.0586
       102         0.1373     -0.0290      0.0915      0.0281      0.0056
       103         0.1828     -0.2588     -0.1037      0.1112      0.0221
       104        -0.1102      0.1016      0.1558      0.0467      0.0093
       105         0.2472     -0.0964     -0.0733      0.0758      0.0151
       106         0.0826     -0.2391      0.0483      0.0663      0.0133
       107        -0.0389      0.3535     -0.0990      0.1363      0.0273
       108        -0.1041      0.4827      0.1199      0.2582      0.0518
       109        -0.0203     -0.0658      0.0951      0.0138      0.0028
       110         0.0022      0.0413      0.0169      0.0020      0.0004
       111        -0.0713      0.0996      0.1573      0.0397      0.0080
       112         0.0485     -0.2013     -0.0226      0.0434      0.0088
       113         0.0171     -0.2212     -0.0790      0.0555      0.0113
       114        -0.1069     -0.6195     -0.1293      0.4119      0.0838
       115        -0.0690     -0.6018      0.0050      0.3669      0.0747
       116         0.5390      0.0829     -0.1059      0.3086      0.0630
       117         0.0206      0.0368      0.0167      0.0021      0.0004
       118        -0.0466      0.0318      0.0072      0.0032      0.0007
       119         0.0231      0.1212      0.0003      0.0152      0.0031
       120         0.3755      0.2410      0.0398      0.2007      0.0413
       121         0.0923      0.1047     -0.2143      0.0654      0.0135
       122         0.0632      0.1461     -0.0418      0.0271      0.0056
       123         0.0282      0.2910     -0.0036      0.0855      0.0177
       124         0.0027      0.1334     -0.0144      0.0180      0.0037
       125         0.0618     -0.0586     -0.0460      0.0094      0.0019
       126         0.0313     -0.0555      0.0696      0.0089      0.0019
       127        -0.0314      0.1073     -0.0211      0.0130      0.0027
       128         0.0512      0.0197     -0.1351      0.0213      0.0044
       129         0.0902      0.1131     -0.0313      0.0219      0.0046
       130         0.0583      0.0376      0.1162      0.0183      0.0038
       131        -0.0085      0.0127      0.0583      0.0036      0.0008
       132        -0.0449     -0.1095     -0.0256      0.0147      0.0031
       133         0.1268     -0.0283      0.0158      0.0171      0.0036
       134        -0.1321      0.0482     -0.0799      0.0262      0.0055
       135        -0.2548     -0.1566      0.0152      0.0897      0.0190
       136         0.0381     -0.1770     -0.0342      0.0340      0.0072
       137         0.1357      0.1367      0.0036      0.0371      0.0079
       138         0.0230      0.1770      0.0039      0.0319      0.0068
       139         0.0468     -0.0502     -0.0485      0.0071      0.0015
       140         0.1820     -0.2083     -0.0212      0.0770      0.0164
       141        -0.0156      0.0022     -0.0502      0.0028      0.0006
       142        -0.0693      0.0591      0.0721      0.0135      0.0029
       143         0.1738      0.0655     -0.0250      0.0351      0.0075
       144        -0.1165     -0.0006      0.0184      0.0139      0.0030
       145        -0.0354      0.0551      0.0036      0.0043      0.0009
       146         0.0241      0.1406     -0.0673      0.0249      0.0054
       147        -0.1641      0.0236      0.0698      0.0323      0.0070
       148        -0.0871     -0.0477     -0.0322      0.0109      0.0024
       149        -0.0354      0.0168     -0.0614      0.0053      0.0012
       150        -0.0737      0.1308      0.0079      0.0226      0.0049
 Ground to excited state transition velocity dipole moments (Au):
       state          X           Y           Z        Dip. S.      Osc.
         1        -0.5738      0.0133     -0.0035      0.3295      2.8780
         2         0.0347      0.0419      0.0004      0.0030      0.0150
         3         0.0133      0.1567     -0.0000      0.0247      0.1150
         4         0.0380      0.0390      0.0001      0.0030      0.0130
         5         0.0236     -0.0511     -0.0125      0.0033      0.0145
         6        -0.1302     -0.0355     -0.0030      0.0182      0.0755
         7        -0.0244     -0.0899     -0.0228      0.0092      0.0379
         8         0.0032      0.0356      0.0029      0.0013      0.0052
         9        -0.0036      0.0064     -0.0024      0.0001      0.0002
        10         0.0105      0.0036     -0.0036      0.0001      0.0005
        11        -0.0373      0.0786      0.0102      0.0077      0.0295
        12         0.0369      0.0092     -0.0052      0.0015      0.0054
        13        -0.0045     -0.0126      0.0014      0.0002      0.0006
        14         0.0679      0.0038      0.0037      0.0046      0.0160
        15        -0.0076     -0.0667      0.0019      0.0045      0.0146
        16         0.0959     -0.0243     -0.0101      0.0099      0.0319
        17         0.0003     -0.0065     -0.0018      0.0000      0.0001
        18         0.0817      0.0373     -0.0156      0.0083      0.0258
        19        -0.0961      0.1320      0.0102      0.0268      0.0828
        20        -0.1073      0.0785      0.0070      0.0177      0.0547
        21         0.0237     -0.0335     -0.0034      0.0017      0.0052
        22         0.1403     -0.1003     -0.0161      0.0300      0.0908
        23        -0.0943     -0.0236      0.0007      0.0095      0.0285
        24        -0.2372     -0.0714     -0.0101      0.0615      0.1835
        25         0.0994     -0.1183     -0.0210      0.0243      0.0723
        26         0.2048      0.1262      0.0292      0.0587      0.1738
        27         0.0555      0.0479     -0.0229      0.0059      0.0174
        28        -0.0335     -0.0196     -0.0062      0.0015      0.0045
        29        -0.0387     -0.0501     -0.0073      0.0041      0.0118
        30        -0.0219     -0.0621     -0.0049      0.0044      0.0127
        31         0.0282      0.0193      0.0001      0.0012      0.0034
        32        -0.0033      0.0006     -0.0033      0.0000      0.0001
        33         0.1315      0.0723     -0.0198      0.0229      0.0656
        34         0.0751     -0.0224     -0.0213      0.0066      0.0188
        35        -0.0052      0.0251      0.0049      0.0007      0.0019
        36         0.0616     -0.0449     -0.0260      0.0065      0.0183
        37        -0.1696     -0.1920     -0.0170      0.0659      0.1856
        38        -0.0631     -0.1100     -0.0118      0.0162      0.0452
        39         0.0273      0.0076      0.0256      0.0015      0.0041
        40         0.1270     -0.1234     -0.0280      0.0321      0.0894
        41        -0.2534      0.1957     -0.0065      0.1026      0.2842
        42         0.0062      0.0346      0.0001      0.0012      0.0033
        43        -0.0054      0.0197      0.0102      0.0005      0.0014
        44        -0.0400     -0.0137     -0.0169      0.0021      0.0055
        45        -0.0649     -0.0436      0.0085      0.0062      0.0163
        46         0.1391      0.1558      0.0225      0.0441      0.1161
        47         0.1423      0.1802      0.0324      0.0538      0.1413
        48         0.2977     -0.0011      0.0098      0.0887      0.2322
        49        -0.0528     -0.0134      0.0080      0.0030      0.0079
        50         0.1456     -0.0484     -0.0040      0.0236      0.0607
        51         0.0421      0.0230     -0.0055      0.0023      0.0060
        52         0.0631     -0.0177     -0.0051      0.0043      0.0111
        53         0.0016      0.0167      0.0013      0.0003      0.0007
        54        -0.0093     -0.0190     -0.0000      0.0004      0.0011
        55         0.0652     -0.0400     -0.0073      0.0059      0.0150
        56         0.0041      0.0028      0.0011      0.0000      0.0001
        57         0.0255     -0.0370     -0.0322      0.0031      0.0078
        58         0.0689     -0.0913     -0.0095      0.0132      0.0333
        59         0.0099     -0.0129     -0.0011      0.0003      0.0007
        60        -0.0083      0.0147     -0.0029      0.0003      0.0007
        61         0.0329     -0.0505     -0.0174      0.0039      0.0098
        62         0.0339     -0.0685     -0.0087      0.0059      0.0148
        63        -0.0220     -0.0803      0.0021      0.0069      0.0170
        64         0.0152      0.0748     -0.0019      0.0058      0.0142
        65         0.0155      0.0179     -0.0303      0.0015      0.0036
        66        -0.0136     -0.0158     -0.0376      0.0018      0.0045
        67         0.0141     -0.0157      0.0136      0.0006      0.0015
        68        -0.0095      0.0352     -0.0009      0.0013      0.0032
        69         0.0363     -0.0115     -0.0014      0.0015      0.0035
        70        -0.0261      0.0361     -0.0084      0.0021      0.0049
        71         0.0114      0.0119     -0.0384      0.0017      0.0042
        72         0.0057      0.0022     -0.0093      0.0001      0.0003
        73        -0.0367      0.0043      0.0122      0.0015      0.0036
        74         0.0106      0.0229      0.0088      0.0007      0.0017
        75        -0.0110     -0.0148      0.0055      0.0004      0.0009
        76         0.0689     -0.1434     -0.0106      0.0254      0.0601
        77         0.1556     -0.0427     -0.0151      0.0263      0.0619
        78        -0.0342      0.0873     -0.0069      0.0088      0.0208
        79         0.0055      0.0064     -0.0015      0.0001      0.0002
        80        -0.0058     -0.0152      0.0263      0.0010      0.0022
        81        -0.0433      0.0834      0.0159      0.0091      0.0213
        82        -0.0507      0.1036      0.0220      0.0138      0.0322
        83         0.0803     -0.0342     -0.0199      0.0080      0.0187
        84         0.0322      0.1113      0.0008      0.0134      0.0313
        85        -0.0705     -0.0160     -0.0145      0.0054      0.0126
        86         0.0668      0.1159     -0.0146      0.0181      0.0420
        87         0.0172      0.0052      0.0153      0.0006      0.0013
        88        -0.0433      0.1368     -0.0032      0.0206      0.0475
        89        -0.1431      0.1276      0.0356      0.0380      0.0876
        90         0.0056     -0.0287      0.0009      0.0009      0.0020
        91         0.0261      0.0233      0.0295      0.0021      0.0048
        92        -0.0974     -0.0490      0.0036      0.0119      0.0272
        93         0.0296      0.0166      0.0436      0.0031      0.0070
        94         0.0011      0.0409     -0.0346      0.0029      0.0065
        95        -0.0386     -0.0434     -0.0240      0.0039      0.0090
        96         0.0105     -0.0833      0.0296      0.0079      0.0179
        97        -0.0640      0.0625     -0.0146      0.0082      0.0185
        98         0.0266     -0.0284      0.0233      0.0021      0.0046
        99        -0.0325      0.1084      0.0263      0.0135      0.0303
       100         0.0138     -0.0550     -0.0464      0.0054      0.0120
       101         0.1136     -0.1128     -0.0099      0.0257      0.0576
       102        -0.0405      0.0079     -0.0241      0.0023      0.0051
       103        -0.0542      0.0769      0.0278      0.0096      0.0215
       104         0.0344     -0.0290     -0.0443      0.0040      0.0089
       105        -0.0735      0.0279      0.0228      0.0067      0.0149
       106        -0.0239      0.0709     -0.0132      0.0058      0.0128
       107         0.0104     -0.1047      0.0248      0.0117      0.0259
       108         0.0318     -0.1426     -0.0336      0.0225      0.0498
       109         0.0067      0.0197     -0.0257      0.0011      0.0024
       110        -0.0005     -0.0115     -0.0029      0.0001      0.0003
       111         0.0211     -0.0305     -0.0453      0.0034      0.0075
       112        -0.0140      0.0608      0.0088      0.0040      0.0087
       113        -0.0051      0.0673      0.0232      0.0051      0.0111
       114         0.0340      0.1873      0.0379      0.0377      0.0823
       115         0.0224      0.1823     -0.0016      0.0337      0.0737
       116        -0.1633     -0.0243      0.0318      0.0283      0.0616
       117        -0.0068     -0.0095     -0.0079      0.0002      0.0004
       118         0.0144     -0.0096     -0.0025      0.0003      0.0007
       119        -0.0078     -0.0372     -0.0029      0.0015      0.0031
       120        -0.1158     -0.0734     -0.0098      0.0189      0.0408
       121        -0.0285     -0.0314      0.0610      0.0055      0.0119
       122        -0.0200     -0.0446      0.0090      0.0025      0.0053
       123        -0.0092     -0.0898      0.0029      0.0082      0.0175
       124        -0.0009     -0.0404      0.0044      0.0016      0.0035
       125        -0.0190      0.0182      0.0128      0.0009      0.0018
       126        -0.0099      0.0171     -0.0204      0.0008      0.0017
       127         0.0089     -0.0333      0.0099      0.0013      0.0028
       128        -0.0162     -0.0062      0.0402      0.0019      0.0041
       129        -0.0263     -0.0371      0.0078      0.0021      0.0045
       130        -0.0173     -0.0125     -0.0340      0.0016      0.0034
       131         0.0029     -0.0039     -0.0177      0.0003      0.0007
       132         0.0149      0.0343      0.0085      0.0015      0.0031
       133        -0.0392      0.0083     -0.0053      0.0016      0.0034
       134         0.0391     -0.0135      0.0238      0.0023      0.0048
       135         0.0824      0.0485     -0.0050      0.0092      0.0193
       136        -0.0113      0.0561      0.0102      0.0034      0.0071
       137        -0.0441     -0.0438     -0.0018      0.0039      0.0081
       138        -0.0082     -0.0548     -0.0010      0.0031      0.0064
       139        -0.0149      0.0172      0.0136      0.0007      0.0015
       140        -0.0578      0.0673      0.0058      0.0079      0.0165
       141         0.0053     -0.0010      0.0140      0.0002      0.0005
       142         0.0234     -0.0189     -0.0229      0.0014      0.0030
       143        -0.0541     -0.0211      0.0081      0.0034      0.0071
       144         0.0421      0.0005     -0.0054      0.0018      0.0037
       145         0.0121     -0.0169     -0.0042      0.0005      0.0009
       146        -0.0077     -0.0454      0.0215      0.0026      0.0053
       147         0.0530     -0.0057     -0.0220      0.0033      0.0068
       148         0.0283      0.0154      0.0092      0.0011      0.0023
       149         0.0129     -0.0062      0.0195      0.0006      0.0012
       150         0.0226     -0.0420     -0.0022      0.0023      0.0047
 Ground to excited state transition magnetic dipole moments (Au):
       state          X           Y           Z
         1         0.0427      0.0885     -1.6391
         2        -0.0266      0.0460     -0.0993
         3        -0.0305      0.1146     -0.4909
         4         0.0300     -0.0586     -0.1652
         5         0.0770      0.0667     -0.2550
         6        -0.0040     -0.0122      1.1848
         7        -0.0325      0.3026     -1.8433
         8         0.0339     -0.3499      0.8655
         9        -0.0358     -0.0223      0.2841
        10         0.1810      0.1004     -0.0389
        11         0.0544     -0.2533     -0.3230
        12         0.0459      0.1629     -1.8673
        13        -0.0378     -0.0316      0.2952
        14         0.0129      0.0068     -0.0934
        15        -0.0196     -0.1190      1.2234
        16        -0.0404      0.1556      0.3759
        17        -0.0024     -0.0497      0.8435
        18         0.0539      0.4346     -1.1789
        19         0.1020     -0.2127     -1.7125
        20         0.0630      0.2339     -0.3577
        21         0.2785      0.3366      0.4208
        22         0.0716      0.0201      0.3977
        23         0.1063     -0.0259     -0.7054
        24        -0.0071      0.2256     -0.2360
        25        -0.0137      0.4127     -2.5680
        26         0.0032     -0.3532      2.2842
        27        -0.0228     -0.2045      0.4307
        28         0.0635     -0.3038     -0.2241
        29        -0.0012      0.1804     -1.1608
        30        -0.0799      0.1047     -0.4426
        31        -0.0941     -0.2160      0.0469
        32        -0.0466      0.0487     -0.1239
        33        -0.0798      0.8047     -3.9751
        34         0.0575      0.0717     -1.8825
        35        -0.0469      0.1798      0.0732
        36         0.0253      0.3312     -0.6449
        37        -0.1109      0.2736      0.6383
        38        -0.0744      0.1880     -1.6534
        39         0.0665      0.0439     -0.1761
        40         0.2179     -0.0345      1.2546
        41         0.2106     -0.2619     -2.0825
        42        -0.3035     -0.0432     -0.1749
        43         0.1711     -0.1373      0.0530
        44         0.3910      0.1680     -0.9108
        45        -0.2279     -0.0488     -0.6194
        46         0.0500     -0.4327      2.6881
        47         0.1149     -0.5094      2.3174
        48        -0.0287      0.0134     -1.1866
        49         0.1773     -0.0899     -0.2879
        50        -0.0382      0.3003      0.2471
        51         0.1949      0.0302      0.3634
        52         0.0257     -0.1166      0.1949
        53        -0.0034     -0.0601      0.1815
        54         0.0062     -0.0775      0.1211
        55        -0.2486     -0.2119     -0.0194
        56        -0.0214     -0.0477      0.2462
        57        -0.0401      0.2139     -1.5555
        58         0.0450      0.3055     -2.2638
        59         0.2932      0.1399     -0.2152
        60        -0.0540      0.1623      0.1057
        61         0.0009      0.3327      0.2340
        62         0.0525     -0.0081      0.3577
        63         0.0493     -0.0750      0.9563
        64         0.0314      0.0340     -0.7889
        65         0.0112      0.3754      0.1192
        66        -0.1875     -0.3131      0.3005
        67         0.5247     -0.0050     -0.0907
        68        -0.0501     -0.5717     -0.1476
        69         0.1994      0.0101     -0.0034
        70         0.3352      0.0092     -0.0973
        71         0.0827     -0.1864     -0.1690
        72         0.0333     -0.0301      0.0169
        73        -0.0353     -0.0015     -0.2699
        74        -0.0260      0.0490      0.3143
        75        -0.1125      0.2600      0.5917
        76         0.0097     -0.0521      1.8649
        77        -0.0193      0.3789     -0.8371
        78         0.0898      0.0913     -1.3644
        79         0.0156      0.0204     -0.1578
        80        -0.1195     -0.1826      0.2091
        81        -0.1263     -0.1354      0.5938
        82         0.0706     -0.3359     -0.1703
        83        -0.0377      0.5076     -3.1748
        84         0.0006     -0.1945     -1.1053
        85        -0.0871      0.0577     -1.2973
        86        -0.0139      0.2788     -2.0229
        87        -0.0069     -0.5833     -0.0403
        88         0.2400     -0.0808     -1.2359
        89        -0.1242     -0.2305      0.4286
        90         0.7965     -0.4006     -0.1605
        91         0.3505      0.2546     -0.1932
        92        -0.2551     -0.3763      1.6364
        93        -0.4279     -0.4841     -0.2474
        94        -0.2713     -0.4672     -0.3495
        95        -0.0688     -0.3977      0.3314
        96        -0.1023      0.0468      0.8475
        97         0.0281      0.1939      1.1068
        98         0.1238     -0.0803      0.3966
        99         0.1742     -0.3758     -0.0960
       100        -0.1387      0.0481     -0.3377
       101        -0.3353      0.4105     -0.3811
       102        -0.2540      0.7536     -0.1302
       103        -0.1254      0.1517      0.3218
       104         0.1314      0.3555     -0.4358
       105         0.2591     -0.3033      2.0906
       106        -0.5889     -0.5872      0.0927
       107        -0.2021      0.6078      1.3354
       108        -0.0363     -0.1374      1.7741
       109         0.1643     -0.3709     -0.1028
       110         0.1135      0.2073      0.2627
       111         0.1924      0.3227     -0.4885
       112         0.1716     -0.1830      0.9977
       113        -0.1369      0.3869      0.7389
       114        -0.0604     -0.4790      1.5256
       115        -0.0137     -0.6749      1.7181
       116        -0.2165     -0.3419      3.9539
       117        -0.1087     -0.0165      0.3364
       118         0.0397      0.0795     -0.6518
       119        -0.0130      0.0545     -0.2183
       120        -0.0460      0.3914      1.1158
       121        -0.0254     -0.6764     -0.0902
       122        -0.0331     -0.1346     -0.1064
       123         0.0056      0.4430     -0.4446
       124        -0.0204     -0.1162     -0.2311
       125         0.1296      0.1536      0.6138
       126         0.0886      0.5729      0.5380
       127        -0.1019     -0.0839      0.4598
       128         0.0438      0.3024      0.3944
       129        -0.1121      0.5900      0.0443
       130        -0.2938     -0.0423     -0.2004
       131         0.1765     -0.4215      0.1930
       132         0.0107     -0.3277     -0.0936
       133         0.4745      0.1862      0.1431
       134        -0.1446      0.2985      0.3037
       135         0.1435     -0.0689     -0.8520
       136         0.1990     -0.3633      0.4769
       137         0.0513      0.0740     -1.3817
       138         0.2543     -0.2180     -0.0705
       139        -0.0990     -0.0594      0.3478
       140         0.0865      0.0946     -0.4322
       141         0.3293      0.1188      0.1199
       142        -0.0777      0.0814     -0.3291
       143        -0.1090     -0.3234      0.8235
       144         0.2164     -0.1148     -0.1152
       145         0.1156      0.2123     -0.1631
       146         0.0200     -0.0987     -0.0563
       147        -0.1822     -0.1463     -0.4675
       148        -0.1419     -0.9908     -0.1227
       149         0.1516      0.0396      0.0139
       150         0.0794      0.0617      0.5817
 Ground to excited state transition velocity quadrupole moments (Au):
       state          XX          YY          ZZ          XY          XZ          YZ
         1        -0.2245      0.0470     -0.0016     -0.1727      0.0348     -0.0454
         2         5.3038      0.3396      0.0223     -0.2540      0.0110      0.0147
         3         8.5812      0.2703      0.0404     -0.5081      0.0147      0.0169
         4        -1.4690     -0.0870     -0.0022     -0.4513      0.0142      0.0053
         5         0.4806      0.0401      0.0024     -0.6416     -0.1431      0.0163
         6         3.5542     -0.0885     -0.0042      0.3055      0.0591      0.0015
         7        -0.8216      0.0150      0.0037     -1.4061     -0.3240      0.0040
         8        -0.0303     -0.0369      0.0039      0.7823      0.0374      0.0014
         9         0.3650     -0.0452      0.0029      0.7103     -0.0131      0.0106
        10        -0.3724     -0.0045     -0.0031      0.0490      0.0716     -0.0352
        11        -0.9767      0.1655      0.0005     -0.8423      0.1239      0.0031
        12        -0.5574     -0.0501     -0.0264     -1.1267     -0.0704     -0.0058
        13         2.0728      0.2456      0.0197      0.0512      0.0124      0.0082
        14        -0.4777      0.0169     -0.0031     -0.4292     -0.0031     -0.0201
        15        -2.0524     -0.0843      0.0229      1.0696      0.0559      0.0126
        16         2.7256     -0.2359     -0.0070      0.6172     -0.1215      0.0009
        17        -0.4718     -0.0393      0.0132      0.8151     -0.0115      0.0717
        18         4.6231      0.0280     -0.0215     -1.1874     -0.2075      0.0001
        19         0.2447      0.2962     -0.0123     -1.8206      0.0853     -0.0186
        20        -2.2071      0.1709      0.0064     -0.5688      0.1306      0.0313
        21        -0.3874     -0.0290      0.0044      0.4341      0.0195     -0.0086
        22        -3.0443     -0.5170      0.0166      0.7843     -0.0367      0.0391
        23        -1.1391      0.5190      0.0171     -1.0924      0.0323      0.0588
        24         4.5330      0.0761     -0.0115     -0.6484     -0.0731     -0.0400
        25        -6.3506      0.2378      0.0127     -1.5581     -0.4401     -0.0180
        26         1.3397     -0.0259     -0.0114      3.0264      0.3253     -0.0481
        27         0.1870      0.0495     -0.0220      0.3721      0.1735      0.0468
        28        -1.7425      0.1349      0.0072     -0.4002      0.1315      0.0691
        29        -1.0095     -0.0142     -0.0096     -1.0459     -0.1451     -0.0284
        30        -0.5483     -0.1043      0.0023     -0.4054     -0.1604     -0.0483
        31        -0.1551     -0.0186      0.0100      0.1617      0.1113      0.0149
        32         0.0808      0.0350     -0.0064     -0.1648      0.0021     -0.0341
        33         5.2316      0.0552     -0.0607     -2.9820     -0.6428     -0.1265
        34         1.4544      0.0479      0.0173     -1.3331     -0.0899      0.0409
        35         1.1438     -0.0792     -0.0529     -0.0771     -0.1971     -0.0754
        36         5.1276     -0.6098     -0.0078     -0.7802     -0.2478     -0.0236
        37         0.5066     -0.6636      0.0028      0.1073     -0.1925     -0.0304
        38        -8.8725      0.1602     -0.0038     -0.8802     -0.2257     -0.0072
        39        -1.3620      0.0411      0.0125     -0.0983     -0.1224     -0.0048
        40         1.0866     -0.2320     -0.0189      1.6307      0.0660      0.0842
        41         1.0418      0.3925     -0.0230     -3.0749      0.2760      0.1282
        42         0.9387      0.0047     -0.0849     -0.3785      0.1024     -0.1104
        43         0.2502     -0.1254      0.0343     -0.0139      0.1775      0.0900
        44        -0.4522     -0.3230      0.0219     -0.9413     -0.1000      0.0718
        45        -2.7676      0.0310      0.0189     -0.4932      0.0338     -0.0540
        46         3.3451      0.2296     -0.0044      2.6957      0.5372     -0.0138
        47         4.6682      0.0431     -0.0261      2.4170      0.4042      0.0212
        48        -9.8607      0.5957      0.0177      0.4355     -0.1755     -0.0104
        49         0.7318      0.0942     -0.0106     -0.2486     -0.0834     -0.0034
        50         1.2094     -0.2349     -0.0143      0.8753     -0.2290     -0.0860
        51        -1.2036      0.1087      0.0625      0.5401      0.0329      0.0939
        52         0.6172     -0.2154     -0.0006      0.6884      0.0473     -0.0384
        53         0.3741     -0.0128     -0.0057      0.0790      0.0449      0.0075
        54        -0.9441      0.0034      0.0045      0.0262     -0.0322      0.0509
        55         0.0299     -0.1391     -0.0566      0.1585      0.1036     -0.1223
        56         0.2729     -0.0231     -0.0053      0.2464      0.0484     -0.0088
        57         0.8344      0.1231     -0.0310     -1.8824     -0.3330     -0.0713
        58         1.7708     -0.0707      0.0014     -2.0740     -0.3186     -0.0208
        59         0.8277     -0.0196      0.0253     -0.2409     -0.0940     -0.0076
        60         0.1755     -0.0086     -0.0249      0.0640     -0.1662     -0.0326
        61         1.8328     -0.4579     -0.0155      0.3776     -0.3906      0.0218
        62         1.5087     -0.5488      0.0182      0.3697      0.0390     -0.0302
        63        -1.0046     -0.1785      0.0254      1.1395      0.1059      0.0595
        64         0.7152     -0.0387     -0.0253     -1.2069     -0.0590     -0.0062
        65         0.3369     -0.0583      0.0567      0.0479     -0.2413     -0.0345
        66         0.1913      0.0799     -0.0375      0.2365      0.2167     -0.1182
        67         0.1306     -0.0739      0.0095      0.0249      0.0081      0.1405
        68         0.0968      0.0741      0.0138      0.0081      0.4477      0.0382
        69         0.8633      0.0671     -0.0023     -0.0994     -0.0489      0.0486
        70        -0.4379      0.0098      0.0045     -0.0662     -0.1048      0.1697
        71         0.0111     -0.0376      0.0069     -0.0219      0.2051      0.0666
        72         0.0193     -0.0320      0.0071      0.0162     -0.0025      0.0273
        73        -0.7704      0.0050     -0.0430     -0.2723      0.3082     -0.0733
        74        -0.3710      0.2255      0.0336      0.3544     -0.1047     -0.0832
        75        -0.4248      0.0064     -0.0999      0.2404     -0.1431     -0.1286
        76        -1.8229     -0.2756      0.0255      2.0825      0.1787     -0.1095
        77         4.4879     -0.0495     -0.0074     -0.2401     -0.2806     -0.0042
        78         1.6255      0.1738     -0.0071     -1.4128      0.1140     -0.1599
        79         0.4323      0.0168      0.0002     -0.1282      0.0133     -0.0224
        80        -0.4374     -0.0413      0.0398      0.0567      0.1598      0.0224
        81        -1.5280      0.0628     -0.0144      0.3500      0.0731     -0.0187
        82        -1.2308      0.1300     -0.0175     -0.5887      0.2050     -0.0241
        83         0.7562      0.0271      0.0004     -2.8928     -0.5643     -0.0462
        84        -2.4226      0.5644      0.0016     -0.7977      0.2147      0.0205
        85         0.3195     -0.2505     -0.0079     -1.8019     -0.0936      0.0132
        86         2.7235      0.5415     -0.0032     -2.0120     -0.2999      0.0176
        87         0.4865      0.2467      0.0805      0.0536      0.5473      0.1253
        88         2.8366      0.1721      0.0077     -1.7076      0.1652      0.1061
        89        -3.9524      0.0585     -0.0114      0.4125      0.1810     -0.0630
        90        -0.2952     -0.0151      0.0127     -0.2141      0.4117      0.1223
        91        -0.0889      0.0474      0.0242     -0.1259     -0.1015      0.1370
        92        -3.1990      0.2641      0.0342      1.8195      0.4346      0.0782
        93         0.4739     -0.0274     -0.0431     -0.1588      0.4377     -0.1412
        94        -0.4480      0.0759      0.0373     -0.3055      0.5867     -0.1182
        95         2.8236     -0.1137      0.0232      0.2483      0.4178     -0.0175
        96         0.7856     -0.2123      0.0385      1.0008     -0.1138     -0.0601
        97        -1.7092      0.0607     -0.0001      0.9195     -0.2371     -0.0015
        98         0.8728     -0.1258      0.0709      0.4629      0.0340      0.1459
        99        -0.9576      0.2522      0.0591     -0.0329      0.3820      0.1637
       100         1.1650      0.0184     -0.0357     -0.2927     -0.0372     -0.0487
       101         2.5653     -0.1969     -0.0180     -0.3911     -0.5067     -0.1661
       102        -1.0173      0.1984     -0.0893     -0.2173     -0.6966     -0.2107
       103        -1.2461     -0.0477      0.0034      0.3756     -0.2091     -0.0545
       104         0.3005     -0.2330     -0.0628     -0.4239     -0.3231     -0.0218
       105        -1.6927     -0.2445     -0.0418      2.0882      0.4276      0.0660
       106         0.2454      0.1946      0.0209     -0.2015      0.5604     -0.0996
       107         1.0002     -0.3663     -0.0235      1.3105     -0.4853     -0.1078
       108         1.6606     -0.6596      0.0305      1.6865      0.0341      0.0671
       109        -0.0682     -0.0393     -0.0050     -0.1087      0.3252      0.0934
       110         0.2591      0.0980      0.0131      0.2200     -0.1444      0.0776
       111         0.0429     -0.2822     -0.0360     -0.4810     -0.2508     -0.0264
       112        -0.3809      0.0543     -0.0083      0.9301      0.2490      0.0465
       113        -0.4788      0.3164      0.0134      0.6289     -0.3275     -0.0970
       114        -1.8545      0.3178     -0.0141      1.3305      0.3421      0.0274
       115        -0.7511      0.1715     -0.0063      1.5375      0.5261      0.0306
       116         3.6818      0.0987      0.0153      3.1493      0.3200     -0.0796
       117         0.2921      0.0780     -0.0352      0.1851      0.0384     -0.1161
       118        -0.6515     -0.1394     -0.0254     -0.4954      0.1093      0.0003
       119         0.8653     -0.0419     -0.0418     -0.4020     -0.0987     -0.0830
       120         2.2512      0.4128      0.0390      0.2812     -0.3714     -0.0288
       121        -0.0478      0.0159      0.0328     -0.1305      0.6644     -0.0314
       122         0.7331      0.0250     -0.0169     -0.3455      0.1070      0.0113
       123         0.2864     -0.1008      0.0166     -0.3878     -0.2410     -0.0401
       124         0.1769      0.0078     -0.0302     -0.4600      0.0414     -0.0359
       125         0.1885      0.1640      0.0246      0.4049     -0.0688      0.0056
       126         0.0660      0.2681      0.0220      0.3466     -0.3554     -0.0517
       127         0.6622      0.1918      0.0134      0.1890      0.1070     -0.0409
       128         1.1243      0.1351      0.0395      0.0359     -0.3613     -0.0470
       129        -0.4808      0.3066     -0.0193     -0.0027     -0.4205     -0.0191
       130        -0.6743     -0.1486     -0.0480     -0.4150      0.0457     -0.1733
       131        -0.3501      0.1692      0.0507      0.3097      0.1925      0.0595
       132        -0.3456     -0.0618      0.0003     -0.1025      0.0944      0.0351
       133         0.2088      0.0607      0.0361      0.1090      0.0442      0.1095
       134        -0.4319     -0.0341     -0.0429      0.5244     -0.2884     -0.1194
       135        -3.2670      0.5104      0.0149     -0.4132      0.1108      0.0658
       136         0.0714      0.2432     -0.0069      0.5860      0.1737     -0.0047
       137        -0.8195     -0.1384      0.0124     -1.6067     -0.2259     -0.0092
       138         0.1226     -0.2175     -0.0014     -0.0918      0.0177      0.0332
       139        -0.3282     -0.1200     -0.0105      0.3919      0.2340      0.0478
       140        -0.6052      0.1454     -0.0230     -0.5028      0.0179      0.0728
       141        -0.3477     -0.1539      0.0289      0.1511     -0.1181      0.1515
       142         0.4989      0.1113     -0.0595     -0.0258     -0.1701     -0.0581
       143        -2.0224      0.0388      0.0500      1.5500      0.5231     -0.0541
       144        -0.7228     -0.0421     -0.0291     -0.0849      0.0314      0.1612
       145        -0.3574     -0.1364     -0.0243      0.1453     -0.1198      0.0892
       146         0.0412     -0.1069      0.0358      0.5639      0.1540     -0.0386
       147         1.2798      0.0022     -0.0128     -0.6668      0.2638     -0.1440
       148         0.7499      0.0316     -0.0295     -0.0795      0.6887     -0.0342
       149        -0.1335      0.1449      0.0010     -0.0961     -0.0641      0.0955
       150        -0.2148     -0.3986      0.0102      1.0824     -0.0773      0.0513
 <0|del|b> * <b|rxdel|0> + <0|del|b> * <b|delr+rdel|0>
 Rotatory Strengths (R) in cgs (10**-40 erg-esu-cm/Gauss)
       state          XX          YY          ZZ    R(velocity)    E-M Angle
         1        32.7059     30.9050   -226.6287    -54.3393       91.07
         2         3.6000     -0.9660      2.5835      1.7391       80.90
         3        38.6776     -0.4465     48.4077     28.8796       77.23
         4        -6.7103      3.1737     -1.8356     -1.7907       96.85
         5         1.0964     -6.0614     12.3379      2.4576       84.22
         6        -4.1126     -5.0009     -2.0953     -3.7363       90.91
         7        39.0218     23.3349      6.1430     22.8332       84.98
         8       -19.5217      0.7612    -23.8176    -14.1927      107.10
         9        -5.1242      2.3342     -0.1320     -0.9740      108.03
        10         0.1396      3.9360      6.1289      3.4015       12.48
        11       -84.5761      6.4052    -24.6143    -34.2618      134.07
        12        34.7253     10.4506      5.4067     16.8609       79.67
        13         1.9302      0.8793      0.8307      1.2134       75.91
        14        -3.4899      1.3927      4.1308      0.6779       85.05
        15        27.3946      0.5837      7.6586     11.8790       82.79
        16       -28.6799     -2.3011     -8.1742    -13.0517      106.36
        17        -4.6333     -0.0520      0.6343     -1.3503      102.14
        18       100.3575      7.0566     21.1719     42.8620       70.08
        19      -123.6989    -11.3382    -46.6039    -60.5470      101.29
        20         2.5994    -14.1237     41.2180      9.8979       80.92
        21       -22.0181     10.4802     -8.3294     -6.6224      104.15
        22       -39.6356     34.8934     10.0019      1.7532       88.66
        23         0.0553    -24.4315     -7.3916    -10.5893       98.23
        24       -19.6413     11.1261    -29.6032    -12.7061       98.55
        25       -22.5477     28.4268      5.7688      3.8826       89.48
        26       109.3144    -48.4746     10.9697     23.9365       87.66
        27       -56.9991     -0.0201     -8.3482    -21.7891      124.82
        28        19.2778     -8.5851      5.5455      5.4127       69.65
        29        -0.4094      3.0646     -4.3727     -0.5725       90.42
        30       -19.0432      4.6177      6.4079     -2.6725       94.89
        31        -9.6922     -3.4484     -7.8296     -6.9901      146.23
        32         1.4941      0.2029      0.1074      0.6015       27.32
        33       368.2838    -11.3048     27.0829    128.0206       78.11
        34        98.0886     28.8894      2.5122     43.1634       73.79
        35        14.1984      2.0769     -0.8775      5.1326       10.96
        36        16.6819     -5.1215     -1.0907      3.4899       86.57
        37      -152.5797     22.3101     -2.8518    -44.3738      104.29
[...]
 Alpha virt. eigenvalues --    0.31880   0.32041   0.32271   0.32369   0.32749
 Alpha virt. eigenvalues --    0.33457   0.33720   0.34282   0.34310   0.34327
 Alpha virt. eigenvalues --    0.34892   0.35447   0.36473   0.36640   0.37037
 Alpha virt. eigenvalues --    0.37414   0.37835   0.38093   0.38287   0.38410
 Alpha virt. eigenvalues --    0.38758   0.38916   0.39642   0.40051   0.40115
 Alpha virt. eigenvalues --    0.40267   0.41269   0.41349   0.41644   0.42151
 Alpha virt. eigenvalues --    0.42627   0.42821   0.43021   0.43303   0.43660
 Alpha virt. eigenvalues --    0.43768   0.44321   0.44789   0.44938   0.45174
 Alpha virt. eigenvalues --    0.45559   0.45687   0.45853   0.46231   0.46437
 Alpha virt. eigenvalues --    0.46527   0.46685   0.46916   0.46957   0.47227
 Alpha virt. eigenvalues --    0.47554   0.47863   0.48446   0.48720   0.48953
 Alpha virt. eigenvalues --    0.49421   0.49537   0.49685   0.50022   0.50353
 Alpha virt. eigenvalues --    0.50923   0.51337   0.51967   0.52218   0.52439
 Alpha virt. eigenvalues --    0.52956   0.53447   0.54101   0.54449   0.54533
 Alpha virt. eigenvalues --    0.54929   0.55265   0.55433   0.56296   0.57011
 Alpha virt. eigenvalues --    0.57291   0.57567   0.58162   0.58499   0.58879
 Alpha virt. eigenvalues --    0.59294   0.59848   0.60110   0.60935   0.61217
 Alpha virt. eigenvalues --    0.61295   0.61515   0.62173   0.62403   0.62931
 Alpha virt. eigenvalues --    0.63468   0.63856   0.64099   0.64400   0.64705
 Alpha virt. eigenvalues --    0.65067   0.65792   0.66165   0.66676   0.67091
 Alpha virt. eigenvalues --    0.67428   0.67702   0.68054   0.68888   0.69325
 Alpha virt. eigenvalues --    0.69531   0.69817   0.70508   0.70699   0.71140
 Alpha virt. eigenvalues --    0.71515   0.72114   0.72145   0.72469   0.72769
 Alpha virt. eigenvalues --    0.72902   0.73167   0.73442   0.73688   0.74456
 Alpha virt. eigenvalues --    0.74665   0.75024   0.75130   0.75978   0.76395
 Alpha virt. eigenvalues --    0.76903   0.77008   0.77837   0.78272   0.78453
 Alpha virt. eigenvalues --    0.78929   0.79259   0.79668   0.79815   0.80557
 Alpha virt. eigenvalues --    0.80710   0.81516   0.82803   0.82978   0.83149
 Alpha virt. eigenvalues --    0.83694   0.84075   0.85326   0.85562   0.86205
 Alpha virt. eigenvalues --    0.86924   0.87018   0.87500   0.88203   0.88737
 Alpha virt. eigenvalues --    0.89464   0.89969   0.90246   0.90423   0.90601
 Alpha virt. eigenvalues --    0.91170   0.91243   0.91905   0.92129   0.92943
 Alpha virt. eigenvalues --    0.93861   0.94374   0.94994   0.95250   0.95572
 Alpha virt. eigenvalues --    0.96428   0.97422   0.97698   0.99068   0.99579
 Alpha virt. eigenvalues --    0.99759   1.00096   1.01107   1.01951   1.03432
 Alpha virt. eigenvalues --    1.03791   1.03995   1.05061   1.05383   1.06066
 Alpha virt. eigenvalues --    1.06458   1.07670   1.08181   1.08447   1.09350
 Alpha virt. eigenvalues --    1.09600   1.11026   1.11338   1.11833   1.12198
 Alpha virt. eigenvalues --    1.12656   1.13724   1.14157   1.14562   1.14890
 Alpha virt. eigenvalues --    1.15250   1.15901   1.16315   1.16546   1.16947
 Alpha virt. eigenvalues --    1.18523   1.18812   1.19639   1.20265   1.20308
 Alpha virt. eigenvalues --    1.20674   1.21273   1.22199   1.22826   1.23329
 Alpha virt. eigenvalues --    1.23969   1.24672   1.24893   1.25429   1.25757
 Alpha virt. eigenvalues --    1.26814   1.26925   1.27009   1.28160   1.28486
 Alpha virt. eigenvalues --    1.28686   1.29653   1.30112   1.30385   1.30990
 Alpha virt. eigenvalues --    1.31852   1.32021   1.32150   1.33020   1.33806
 Alpha virt. eigenvalues --    1.34600   1.35409   1.35596   1.36211   1.36776
 Alpha virt. eigenvalues --    1.37092   1.38567   1.38964   1.40522   1.41076
 Alpha virt. eigenvalues --    1.42357   1.42537   1.43974   1.44270   1.44394
 Alpha virt. eigenvalues --    1.45039   1.45284   1.45801   1.46337   1.47785
 Alpha virt. eigenvalues --    1.48119   1.48541   1.49815   1.50509   1.50833
 Alpha virt. eigenvalues --    1.50989   1.51237   1.51700   1.52229   1.52557
 Alpha virt. eigenvalues --    1.53068   1.53899   1.54646   1.54967   1.55639
 Alpha virt. eigenvalues --    1.56133   1.56563   1.57024   1.57701   1.57950
 Alpha virt. eigenvalues --    1.58180   1.58464   1.58700   1.58844   1.59097
 Alpha virt. eigenvalues --    1.59401   1.59567   1.59755   1.60757   1.61008
 Alpha virt. eigenvalues --    1.61219   1.61533   1.62053   1.62278   1.62849
 Alpha virt. eigenvalues --    1.63511   1.63788   1.64091   1.64868   1.65369
 Alpha virt. eigenvalues --    1.65965   1.65982   1.66604   1.67029   1.67466
 Alpha virt. eigenvalues --    1.67912   1.68591   1.68939   1.69271   1.69568
 Alpha virt. eigenvalues --    1.70090   1.70460   1.71684   1.71849   1.72339
 Alpha virt. eigenvalues --    1.72553   1.72773   1.73479   1.74119   1.74593
 Alpha virt. eigenvalues --    1.75386   1.75707   1.77068   1.78242   1.78389
 Alpha virt. eigenvalues --    1.78577   1.78945   1.80033   1.80200   1.80692
 Alpha virt. eigenvalues --    1.81288   1.81852   1.82862   1.83010   1.83569
 Alpha virt. eigenvalues --    1.84051   1.84526   1.84978   1.85001   1.85776
 Alpha virt. eigenvalues --    1.86534   1.86870   1.87348   1.87666   1.87954
 Alpha virt. eigenvalues --    1.88435   1.88676   1.89519   1.89910   1.90319
 Alpha virt. eigenvalues --    1.90760   1.91075   1.91253   1.92039   1.92254
 Alpha virt. eigenvalues --    1.93366   1.93617   1.94534   1.95363   1.95921
 Alpha virt. eigenvalues --    1.96235   1.98102   1.98481   1.99543   1.99920
 Alpha virt. eigenvalues --    2.00452   2.00986   2.01306   2.01501   2.03095
 Alpha virt. eigenvalues --    2.04074   2.04455   2.05161   2.05508   2.06217
 Alpha virt. eigenvalues --    2.06970   2.08721   2.09512   2.10679   2.11379
 Alpha virt. eigenvalues --    2.11760   2.12561   2.13221   2.14008   2.14300
 Alpha virt. eigenvalues --    2.14963   2.15598   2.15727   2.16449   2.17580
 Alpha virt. eigenvalues --    2.18124   2.19302   2.19760   2.20392   2.21201
 Alpha virt. eigenvalues --    2.21707   2.22363   2.22549   2.23154   2.23386
 Alpha virt. eigenvalues --    2.23621   2.23982   2.25462   2.26039   2.26255
 Alpha virt. eigenvalues --    2.27563   2.28426   2.28491   2.30028   2.31236
 Alpha virt. eigenvalues --    2.31677   2.31951   2.32461   2.33204   2.34002
 Alpha virt. eigenvalues --    2.34877   2.35390   2.36054   2.36545   2.37496
 Alpha virt. eigenvalues --    2.38709   2.39214   2.39982   2.40567   2.41555
 Alpha virt. eigenvalues --    2.42008   2.42473   2.43687   2.44392   2.44697
 Alpha virt. eigenvalues --    2.45303   2.46173   2.47156   2.48340   2.49250
 Alpha virt. eigenvalues --    2.49736   2.50730   2.51537   2.51787   2.53045
 Alpha virt. eigenvalues --    2.53299   2.53733   2.54088   2.54953   2.55640
 Alpha virt. eigenvalues --    2.56723   2.57051   2.57853   2.58019   2.59345
 Alpha virt. eigenvalues --    2.60458   2.61047   2.61281   2.61782   2.62481
 Alpha virt. eigenvalues --    2.62953   2.63279   2.63602   2.63847   2.64215
 Alpha virt. eigenvalues --    2.64844   2.64962   2.66004   2.66174   2.66595
 Alpha virt. eigenvalues --    2.67143   2.67368   2.67823   2.68555   2.68732
 Alpha virt. eigenvalues --    2.69480   2.69754   2.69938   2.70590   2.70791
 Alpha virt. eigenvalues --    2.71092   2.71346   2.71476   2.72530   2.72709
 Alpha virt. eigenvalues --    2.73162   2.73870   2.74297   2.74477   2.74822
 Alpha virt. eigenvalues --    2.75163   2.75726   2.75864   2.76800   2.76986
 Alpha virt. eigenvalues --    2.77621   2.78130   2.78626   2.80069   2.80865
 Alpha virt. eigenvalues --    2.80993   2.81471   2.81992   2.82496   2.82912
 Alpha virt. eigenvalues --    2.83137   2.83565   2.84027   2.84513   2.85143
 Alpha virt. eigenvalues --    2.85848   2.86941   2.87651   2.88213   2.88456
 Alpha virt. eigenvalues --    2.88478   2.88847   2.89399   2.89935   2.90083
 Alpha virt. eigenvalues --    2.90175   2.90935   2.91491   2.92229   2.92911
 Alpha virt. eigenvalues --    2.93103   2.93584   2.94662   2.95056   2.95461
 Alpha virt. eigenvalues --    2.96451   2.97019   2.97527   2.97758   2.98283
 Alpha virt. eigenvalues --    2.98656   2.98905   2.99169   2.99775   3.00982
 Alpha virt. eigenvalues --    3.01566   3.02653   3.02810   3.03596   3.04481
 Alpha virt. eigenvalues --    3.05003   3.05881   3.06248   3.06333   3.06647
 Alpha virt. eigenvalues --    3.07326   3.08401   3.09034   3.10008   3.10451
 Alpha virt. eigenvalues --    3.10734   3.11182   3.11445   3.12275   3.13041
 Alpha virt. eigenvalues --    3.13571   3.13921   3.14243   3.14751   3.15199
 Alpha virt. eigenvalues --    3.15534   3.15704   3.16054   3.16445   3.16642
 Alpha virt. eigenvalues --    3.16728   3.17161   3.17677   3.18136   3.18225
 Alpha virt. eigenvalues --    3.18518   3.18998   3.19796   3.20104   3.20706
 Alpha virt. eigenvalues --    3.20795   3.21402   3.21644   3.22284   3.22995
 Alpha virt. eigenvalues --    3.23342   3.23720   3.24098   3.24923   3.25296
 Alpha virt. eigenvalues --    3.25569   3.25894   3.26444   3.26649   3.27443
 Alpha virt. eigenvalues --    3.27852   3.28924   3.29452   3.29619   3.29975
 Alpha virt. eigenvalues --    3.30645   3.31163   3.31579   3.31762   3.32583
 Alpha virt. eigenvalues --    3.33290   3.33985   3.34278   3.34624   3.35261
 Alpha virt. eigenvalues --    3.35647   3.36619   3.37025   3.37582   3.37905
 Alpha virt. eigenvalues --    3.38377   3.38676   3.39494   3.39882   3.40640
 Alpha virt. eigenvalues --    3.40817   3.40964   3.41760   3.42245   3.42494
 Alpha virt. eigenvalues --    3.43245   3.43746   3.44055   3.44684   3.44743
 Alpha virt. eigenvalues --    3.45346   3.46063   3.46406   3.46911   3.47242
 Alpha virt. eigenvalues --    3.47461   3.47980   3.48714   3.48722   3.49518
 Alpha virt. eigenvalues --    3.49793   3.49876   3.50312   3.51098   3.51562
 Alpha virt. eigenvalues --    3.51804   3.52473   3.52825   3.53423   3.54470
 Alpha virt. eigenvalues --    3.55027   3.55495   3.56060   3.56129   3.56166
 Alpha virt. eigenvalues --    3.57458   3.57903   3.58334   3.59230   3.59497
 Alpha virt. eigenvalues --    3.60083   3.60500   3.61958   3.62617   3.63034
 Alpha virt. eigenvalues --    3.63930   3.64115   3.64513   3.65513   3.65931
 Alpha virt. eigenvalues --    3.67049   3.67631   3.68069   3.69441   3.69601
 Alpha virt. eigenvalues --    3.70093   3.70450   3.71751   3.72626   3.73249
 Alpha virt. eigenvalues --    3.74668   3.75073   3.75715   3.76368   3.76698
 Alpha virt. eigenvalues --    3.77029   3.77362   3.79641   3.82686   3.83316
 Alpha virt. eigenvalues --    3.84676   3.84990   3.85708   3.86443   3.87151
 Alpha virt. eigenvalues --    3.87922   3.88995   3.90648   3.91270   3.92819
 Alpha virt. eigenvalues --    3.93308   3.94822   3.95395   3.96148   3.97308
 Alpha virt. eigenvalues --    3.97593   3.98519   3.99560   4.00268   4.00672
 Alpha virt. eigenvalues --    4.01102   4.01875   4.02670   4.03075   4.04282
 Alpha virt. eigenvalues --    4.04938   4.06070   4.06988   4.07280   4.07853
 Alpha virt. eigenvalues --    4.11418   4.12180   4.13133   4.15136   4.15859
 Alpha virt. eigenvalues --    4.16990   4.17115   4.18718   4.20431   4.21158
 Alpha virt. eigenvalues --    4.21289   4.21556   4.22114   4.22793   4.23358
 Alpha virt. eigenvalues --    4.24276   4.25231   4.25350   4.25579   4.27666
 Alpha virt. eigenvalues --    4.28106   4.28159   4.28712   4.29824   4.30580
 Alpha virt. eigenvalues --    4.32454   4.33231   4.34230   4.34477   4.34754
 Alpha virt. eigenvalues --    4.35555   4.36091   4.36699   4.38603   4.39762
 Alpha virt. eigenvalues --    4.41206   4.41251   4.42516   4.43815   4.45203
 Alpha virt. eigenvalues --    4.46217   4.47546   4.48007   4.50067   4.50225
 Alpha virt. eigenvalues --    4.51617   4.53945   4.54233   4.57312   4.57594
 Alpha virt. eigenvalues --    4.59296   4.59777   4.61586   4.62599   4.64668
 Alpha virt. eigenvalues --    4.64952   4.65166   4.65537   4.65953   4.67177
 Alpha virt. eigenvalues --    4.70906   4.74846   4.76582   4.77428   4.78842
 Alpha virt. eigenvalues --    4.79566   4.82638   4.83438   4.84233   4.85242
 Alpha virt. eigenvalues --    4.85418   4.86193   4.86786   4.90484   4.91731
 Alpha virt. eigenvalues --    4.93929   4.95060   4.97113   4.98547   5.02214
 Alpha virt. eigenvalues --    5.02755   5.03530   5.04571   5.05283   5.06930
 Alpha virt. eigenvalues --    5.07953   5.10162   5.12659   5.14893   5.15634
 Alpha virt. eigenvalues --    5.16384   5.17407   5.18813   5.19255   5.22052
 Alpha virt. eigenvalues --    5.23950   5.24627   5.25674   5.26980   5.28983
 Alpha virt. eigenvalues --    5.31578   5.32545   5.33259   5.34043   5.36471
 Alpha virt. eigenvalues --    5.40069   5.41261   5.42631   5.46354   5.48759
 Alpha virt. eigenvalues --    5.50471   5.52465   5.58507   5.60110   5.60715
 Alpha virt. eigenvalues --    5.61540   5.72959   5.74045   5.91541   5.93841
 Alpha virt. eigenvalues --    5.98885   6.02437   6.06274   6.07663   6.19146
 Alpha virt. eigenvalues --    6.21138   9.01121   9.01397   9.59143   9.60413
 Alpha virt. eigenvalues --    9.63694   9.65299  20.45449  20.46891  22.39051
 Alpha virt. eigenvalues --   22.40134  22.58575  22.61018  22.77526  22.79223
 Alpha virt. eigenvalues --   22.80513  22.82468  22.84907  22.84956  22.86260
 Alpha virt. eigenvalues --   22.86578  22.89407  22.91209  22.94298  22.94846
 Alpha virt. eigenvalues --   22.97469  23.05840  23.12227  23.12269  23.15932
 Alpha virt. eigenvalues --   23.22813  23.26846  23.59815  23.61279  33.33493
 Alpha virt. eigenvalues --   33.34285
          Condensed to atoms (all electrons):
 Mulliken charges:
               1
     1  C   -0.409987
     2  C   -0.035114
     3  C   -0.272820
     4  C   -0.061721
     5  C    0.244877
     6  S    0.026186
     7  C    0.002558
     8  C    0.195762
     9  N    0.093109
    10  C   -0.197697
    11  C   -0.182084
    12  C   -0.124007
    13  C   -0.336432
    14  C   -0.176321
    15  C   -0.434737
    16  C   -0.294846
    17  C    0.002083
    18  C   -0.449910
    19  C    0.253772
    20  S    0.056967
    21  C   -0.011493
    22  C    0.201490
    23  N    0.099090
    24  C   -0.197003
    25  C   -0.176066
    26  C   -0.129997
    27  C   -0.333415
    28  C   -0.207406
    29  C   -0.434619
    30  H    0.183716
    31  H    0.165027
    32  H    0.158806
    33  H    0.168878
    34  H    0.182346
    35  H    0.173991
    36  H    0.175042
    37  H    0.184082
    38  H    0.173383
    39  H    0.171916
    40  H    0.158970
    41  H    0.157271
    42  H    0.156299
    43  H    0.158203
    44  H    0.179113
    45  H    0.181885
    46  H    0.181741
    47  H    0.174641
    48  H    0.175411
    49  H    0.188470
    50  H    0.181449
    51  H    0.178403
    52  H    0.158458
    53  H    0.158499
    54  H    0.163785
 Sum of Mulliken charges =   1.00000
 Mulliken charges with hydrogens summed into heavy atoms:
               1
     1  C   -0.226271
     2  C    0.129912
     3  C   -0.114014
     4  C    0.107157
     5  C    0.244877
     6  S    0.026186
     7  C    0.002558
     8  C    0.195762
     9  N    0.093109
    10  C   -0.015351
    11  C   -0.008094
    12  C    0.051034
    13  C   -0.152350
    14  C    0.168978
    15  C    0.037802
    16  C   -0.136644
    17  C    0.181196
    18  C   -0.268025
    19  C    0.253772
    20  S    0.056967
    21  C   -0.011493
    22  C    0.201490
    23  N    0.099090
    24  C   -0.015263
    25  C   -0.001426
    26  C    0.045414
    27  C   -0.144945
    28  C    0.152446
    29  C    0.046123
 Electronic spatial extent (au):  <R**2>=          33470.1056
 Charge=              1.0000 electrons
 Dipole moment (field-independent basis, Debye):
    X=             -0.9801    Y=              0.4198    Z=              0.6344  Tot=              1.2406
 Quadrupole moment (field-independent basis, Debye-Ang):
   XX=             38.5187   YY=           -144.7045   ZZ=           -192.9168
   XY=             27.3041   XZ=              4.8093   YZ=              5.2560
 Traceless Quadrupole moment (field-independent basis, Debye-Ang):
   XX=            138.2195   YY=            -45.0036   ZZ=            -93.2159
   XY=             27.3041   XZ=              4.8093   YZ=              5.2560
 Octapole moment (field-independent basis, Debye-Ang**2):
  XXX=            -93.0782  YYY=              8.0111  ZZZ=              4.8266  XYY=            -44.2049
  XXY=             20.6584  XXZ=             -8.6983  XZZ=              5.4347  YZZ=             -0.7327
  YYZ=              4.3667  XYZ=             24.3572
 Hexadecapole moment (field-independent basis, Debye-Ang**3):
 XXXX=         -26156.4184 YYYY=          -2445.6145 ZZZZ=           -381.6202 XXXY=            778.7044
 XXXZ=             -9.4926 YYYX=            116.9769 YYYZ=             38.4604 ZZZX=              0.6118
 ZZZY=              6.2663 XXYY=          -6049.8991 XXZZ=          -7784.6293 YYZZ=           -545.9990
 XXYZ=            259.4400 YYXZ=             36.9191 ZZXY=             71.0336
 N-N= 2.585855029803D+03 E-N=-9.538128304729D+03  KE= 1.864579831190D+03

 Test job not archived.
 1\1\GINC-CN05\SP\RPBEPBE TD-FC\def2TZVP\C25H25N2S2(1+)\2100011873\05-N
 ov-2023\0\\# td=(nstates=150) PBEPBE/def2TZVP IOp(3/76=1000003750) IOp
 (3/77=0625006250) IOp(3/78=1000010000) scrf(smd, solvent=ethanol)\\A-4
 \\1,1\C,0,-3.663712,-1.051948,-0.111557\C,0,-2.389638,-0.479979,-0.083
 458\C,0,-1.194967,-1.195004,-0.064041\C,0,0.058349,-0.578322,-0.035613
 \C,0,-4.855344,-0.323764,-0.124892\S,0,-4.926662,1.436711,-0.060618\C,
 0,-6.688233,1.402029,-0.083292\C,0,-7.154955,0.079357,-0.139452\N,0,-6
 .111858,-0.857268,-0.18359\C,0,-7.565153,2.482703,-0.048916\C,0,-8.934
 956,2.22022,-0.065794\C,0,-9.407072,0.90276,-0.113224\C,0,-8.529361,-0
 .179533,-0.14882\C,0,-6.366284,-2.306872,-0.248314\C,0,-6.467137,-2.95
 5883,1.133259\C,0,1.282162,-1.246091,-0.016052\C,0,2.511127,-0.582889,
 0.011938\C,0,3.741215,-1.244345,-0.008435\C,0,5.052439,-0.74902,0.0088
 08\S,0,6.36259,-1.866987,-0.365292\C,0,7.562983,-0.600806,-0.16552\C,0
 ,6.941017,0.612357,0.169846\N,0,5.544832,0.495298,0.283261\C,0,8.94627
 2,-0.695535,-0.30211\C,0,9.708364,0.454142,-0.100703\C,0,9.092982,1.66
 8657,0.22877\C,0,7.709445,1.764545,0.3665\C,0,4.732809,1.623027,0.7701
 39\C,0,4.282282,2.569892,-0.344236\H,0,-3.731831,-2.134826,-0.113428\H
 ,0,-2.310249,0.607987,-0.076294\H,0,-1.237617,-2.283434,-0.072611\H,0,
 0.079156,0.512977,-0.027655\H,0,-7.192939,3.501353,-0.008437\H,0,-9.63
 8205,3.046285,-0.038434\H,0,-10.476042,0.714855,-0.119701\H,0,-8.91454
 4,-1.192671,-0.174894\H,0,-7.289207,-2.442036,-0.816617\H,0,-5.570728,
 -2.757498,-0.845647\H,0,-6.666359,-4.026758,1.023381\H,0,-5.536643,-2.
 835556,1.696522\H,0,-7.280055,-2.514652,1.717995\H,0,1.279871,-2.33528
 ,-0.024232\H,0,2.47239,0.50228,0.013643\H,0,3.691082,-2.326769,-0.1054
 04\H,0,9.416627,-1.639291,-0.55871\H,0,10.787594,0.40544,-0.203502\H,0
 ,9.700309,2.555856,0.37729\H,0,7.251286,2.716142,0.611187\H,0,3.887111
 ,1.202637,1.316886\H,0,5.342782,2.154926,1.505154\H,0,3.668719,2.05490
 6,-1.089954\H,0,3.6925,3.387191,0.083941\H,0,5.141488,3.005946,-0.8625
 88\\Version=ES64L-G16RevC.02\State=1-A\HF=-1872.4111267\RMSD=8.640e-09
 \PG=C01 [X(C25H25N2S2)]\\@


 IF YOU WANT TO LEARN FROM THE THEORETICAL PHYSICISTS ABOUT THE
 METHODS WHICH THEY USE, I ADVISE YOU TO FOLLOW THIS PRINCIPLE VERY STRICTLY:
 DON'T LISTEN TO THEIR WORDS; PAY ATTENTION, INSTEAD, TO THEIR ACTIONS.
 -- A.EINSTEIN, 1934
 Job cpu time:       4 days  6 hours 52 minutes 25.4 seconds.
 Elapsed time:       0 days  2 hours 59 minutes 35.8 seconds.
 File lengths (MBytes):  RWF=  43424 Int=      0 D2E=      0 Chk=   4592 Scr=     32
 Normal termination of Gaussian 16 at Sun Nov  5 15:26:07 2023.
