 Entering Gaussian System, Link 0=g16
 Initial command:
 /nfs-share/home/2100011873/Gaussian16_AVX2/g16/l1.exe "/nfs-share/home/2100011873/GaussTmp/Gau-73403.inp" -scrdir="/nfs-share/home/2100011873/GaussTmp/"
 Entering Link 1 = /nfs-share/home/2100011873/Gaussian16_AVX2/g16/l1.exe PID=     73404.
  
 Copyright (c) 1988-2021, Gaussian, Inc.  All Rights Reserved.
  
 This is part of the Gaussian(R) 16 program.  It is based on
 the Gaussian(R) 09 system (copyright 2009, Gaussian, Inc.),
 the Gaussian(R) 03 system (copyright 2003, Gaussian, Inc.),
 the Gaussian(R) 98 system (copyright 1998, Gaussian, Inc.),
 the Gaussian(R) 94 system (copyright 1995, Gaussian, Inc.),
 the Gaussian 92(TM) system (copyright 1992, Gaussian, Inc.),
 the Gaussian 90(TM) system (copyright 1990, Gaussian, Inc.),
 the Gaussian 88(TM) system (copyright 1988, Gaussian, Inc.),
 the Gaussian 86(TM) system (copyright 1986, Carnegie Mellon
 University), and the Gaussian 82(TM) system (copyright 1983,
 Carnegie Mellon University). Gaussian is a federally registered
 trademark of Gaussian, Inc.
  
 This software contains proprietary and confidential information,
 including trade secrets, belonging to Gaussian, Inc.
  
 This software is provided under written license and may be
 used, copied, transmitted, or stored only in accord with that
 written license.
  
 The following legend is applicable only to US Government
 contracts under FAR:
  
                    RESTRICTED RIGHTS LEGEND
  
 Use, reproduction and disclosure by the US Government is
 subject to restrictions as set forth in subparagraphs (a)
 and (c) of the Commercial Computer Software - Restricted
 Rights clause in FAR 52.227-19.
  
 Gaussian, Inc.
 340 Quinnipiac St., Bldg. 40, Wallingford CT 06492
  
  
 ---------------------------------------------------------------
 Warning -- This program may not be used in any manner that
 competes with the business of Gaussian, Inc. or will provide
 assistance to any competitor of Gaussian, Inc.  The licensee
 of this program is prohibited from giving any competitor of
 Gaussian, Inc. access to this program.  By using this program,
 the user acknowledges that Gaussian, Inc. is engaged in the
 business of creating and licensing software in the field of
 computational chemistry and represents and warrants to the
 licensee that it is not a competitor of Gaussian, Inc. and that
 it will not use this program in any manner prohibited above.
 ---------------------------------------------------------------
  

 Cite this work as:
 Gaussian 16, Revision C.02,
 M. J. Frisch, G. W. Trucks, H. B. Schlegel, G. E. Scuseria, 
 M. A. Robb, J. R. Cheeseman, G. Scalmani, V. Barone, 
 G. A. Petersson, H. Nakatsuji, X. Li, M. Caricato, A. V. Marenich, 
 J. Bloino, B. G. Janesko, R. Gomperts, B. Mennucci, H. P. Hratchian, 
 J. V. Ortiz, A. F. Izmaylov, J. L. Sonnenberg, D. Williams-Young, 
 F. Ding, F. Lipparini, F. Egidi, J. Goings, B. Peng, A. Petrone, 
 T. Henderson, D. Ranasinghe, V. G. Zakrzewski, J. Gao, N. Rega, 
 G. Zheng, W. Liang, M. Hada, M. Ehara, K. Toyota, R. Fukuda, 
 J. Hasegawa, M. Ishida, T. Nakajima, Y. Honda, O. Kitao, H. Nakai, 
 T. Vreven, K. Throssell, J. A. Montgomery, Jr., J. E. Peralta, 
 F. Ogliaro, M. J. Bearpark, J. J. Heyd, E. N. Brothers, K. N. Kudin, 
 V. N. Staroverov, T. A. Keith, R. Kobayashi, J. Normand, 
 K. Raghavachari, A. P. Rendell, J. C. Burant, S. S. Iyengar, 
 J. Tomasi, M. Cossi, J. M. Millam, M. Klene, C. Adamo, R. Cammi, 
 J. W. Ochterski, R. L. Martin, K. Morokuma, O. Farkas, 
 J. B. Foresman, and D. J. Fox, Gaussian, Inc., Wallingford CT, 2019.
 
 ******************************************
 Gaussian 16:  ES64L-G16RevC.02  7-Dec-2021
                 6-Nov-2023 
 ******************************************
 %nprocshared=36
 Will use up to   36 processors via shared memory.
 %mem=128GB
 ----------------------------------------------------------------------
 # td=(nstates=150) PBEPBE/def2TZVP IOp(3/76=1000003750) IOp(3/77=06250
 06250) IOp(3/78=1000010000) scrf(smd, solvent=ethanol)
 ----------------------------------------------------------------------
 1/38=1,172=1/1;
 2/12=2,17=6,18=5,40=1/2;
 3/5=44,7=101,11=9,25=1,30=1,70=32201,72=4,74=1009,76=1000003750,77=625006250,78=1000010000/1,2,3,8;
 4//1;
 5/5=2,38=5,53=4/2;
 8/6=1,10=1,108=150/1;
 9/41=150,42=1,70=2/14;
 6/7=2,8=2,9=2,10=2/1;
 99/5=1,9=1/99;
 ---
 B-1
 ---
 Symbolic Z-matrix:
 Charge =  0 Multiplicity = 1
 C                    -13.19325  -1.96518   0.35751 
 C                    -14.15023  -1.3663   -0.66684 
 C                    -14.19793   0.14589  -0.46999 
 C                    -12.83989   0.78112  -0.26594 
 C                    -11.69919   0.06912  -0.02054 
 C                    -11.73425  -1.46329   0.19794 
 C                    -10.43464   0.80864   0.02792 
 C                    -9.1477    0.36849   0.05193 
 C                    -7.97098   1.21881   0.06402 
 C                    -6.73848   0.61877   0.06999 
 C                    -5.44585   1.23802   0.07821 
 C                    -4.28033   0.52598   0.08121 
 C                    -2.9426    1.06363   0.08601 
 C                    -1.88552   0.18504   0.0869 
 C                    -0.48836   0.47987   0.08838 
 C                     0.48836  -0.47988   0.08838 
 C                     1.88552  -0.18505   0.0869 
 C                     2.9426   -1.06364   0.08601 
 C                     4.28033  -0.52598   0.08121 
 C                     5.44585  -1.23802   0.07821 
 C                     6.73848  -0.61878   0.06999 
 C                     7.97098  -1.21882   0.06402 
 C                     9.1477   -0.36849   0.05193 
 C                     10.43464  -0.80864   0.02791 
 C                     11.69919  -0.06911  -0.02054 
 C                     11.73425   1.4633    0.19794 
 C                    -11.0146  -1.85387   1.51323 
 C                    -11.08758  -2.20926  -0.99638 
 C                    -12.87893   2.29364  -0.39889 
 C                     13.19324   1.96519   0.35753 
 C                     14.15024   1.36631  -0.66682 
 C                     14.19793  -0.14588  -0.46997 
 C                     12.83989  -0.78111  -0.26594 
 C                     11.01458   1.85387   1.51322 
 C                     11.08758   2.20926  -0.99639 
 C                     12.87893  -2.29364  -0.39888 
 C                     8.15656  -2.71718   0.0685 
 C                     2.76951  -2.56424   0.08879 
 C                    -2.7695    2.56423   0.08879 
 C                    -8.15656   2.71718   0.0685 
 H                    -13.55224  -1.70444   1.36372 
 H                    -13.19179  -3.06159   0.30296 
 H                    -15.15315  -1.79827  -0.56305 
 H                    -13.81309  -1.59776  -1.68519 
 H                    -14.83673   0.39264   0.39555 
 H                    -14.68517   0.6313   -1.32865 
 H                    -10.55321   1.88625  -0.00013 
 H                    -8.93157  -0.69442   0.04825 
 H                    -6.72719  -0.47229   0.0666 
 H                    -5.39419   2.32333   0.08055 
 H                    -4.35407  -0.56241   0.07851 
 H                    -2.13643  -0.87673   0.08526 
 H                    -0.17247   1.5217    0.08852 
 H                     0.17247  -1.52171   0.08852 
 H                     2.13644   0.87672   0.08527 
 H                     4.35407   0.5624    0.07851 
 H                     5.39419  -2.32334   0.08054 
 H                     6.72719   0.47229   0.06659 
 H                     8.93157   0.69442   0.04824 
 H                     10.55321  -1.88625  -0.00012 
 H                    -11.41656  -1.28058   2.35641 
 H                    -11.18397  -2.91813   1.72001 
 H                    -9.93616  -1.69087   1.48859 
 H                    -10.06227  -1.88498  -1.18781 
 H                    -11.06723  -3.28878  -0.80027 
 H                    -11.65314  -2.04558  -1.91992 
 H                    -13.91376   2.64896  -0.35064 
 H                    -12.32451   2.80958   0.39214 
 H                    -12.46878   2.63324  -1.36008 
 H                     13.19178   3.06159   0.30298 
 H                     13.55222   1.70445   1.36374 
 H                     15.15315   1.79828  -0.56302 
 H                     13.8131   1.59777  -1.68517 
 H                     14.83673  -0.39263   0.39557 
 H                     14.68518  -0.63129  -1.32863 
 H                     11.18393   2.91814   1.72 
 H                     9.93614   1.69087   1.48856 
 H                     11.41653   1.28059   2.3564 
 H                     10.06228   1.88498  -1.18783 
 H                     11.06723   3.28878  -0.80029 
 H                     11.65315   2.04558  -1.91993 
 H                     13.91377  -2.64895  -0.35064 
 H                     12.32452  -2.80958   0.39214 
 H                     12.46878  -2.63323  -1.36007 
 H                     8.74409  -3.03646   0.93873 
 H                     7.20915  -3.25795   0.09305 
 H                     8.70422  -3.04723  -0.82368 
 H                     3.24804  -3.01107   0.96953 
 H                     1.72147  -2.86803   0.09271 
 H                     3.24239  -3.01383  -0.79361 
 H                    -3.2424    3.01383  -0.7936 
 H                    -3.24802   3.01106   0.96955 
 H                    -1.72147   2.86802   0.09269 
 H                    -7.20914   3.25794   0.09306 
 H                    -8.70421   3.04723  -0.82368 
 H                    -8.74409   3.03646   0.93873 
 
 Stoichiometry    C40H56
 Framework group  C1[X(C40H56)]
 Deg. of freedom   282
 Full point group                 C1      NOp   1
 Largest Abelian subgroup         C1      NOp   1
 Largest concise Abelian subgroup C1      NOp   1
                         Standard orientation:                         
 ---------------------------------------------------------------------
 Center     Atomic      Atomic             Coordinates (Angstroms)
 Number     Number       Type             X           Y           Z
 ---------------------------------------------------------------------
      1          6           0       13.193247    1.965180    0.357514
      2          6           0       14.150234    1.366297   -0.666837
      3          6           0       14.197930   -0.145886   -0.469985
      4          6           0       12.839886   -0.781119   -0.265942
      5          6           0       11.699193   -0.069117   -0.020535
      6          6           0       11.734254    1.463294    0.197940
      7          6           0       10.434640   -0.808638    0.027915
      8          6           0        9.147698   -0.368486    0.051934
      9          6           0        7.970978   -1.218813    0.064023
     10          6           0        6.738479   -0.618773    0.069992
     11          6           0        5.445845   -1.238015    0.078209
     12          6           0        4.280328   -0.525977    0.081210
     13          6           0        2.942601   -1.063627    0.086009
     14          6           0        1.885522   -0.185039    0.086900
     15          6           0        0.488362   -0.479870    0.088382
     16          6           0       -0.488364    0.479879    0.088381
     17          6           0       -1.885523    0.185049    0.086901
     18          6           0       -2.942603    1.063636    0.086010
     19          6           0       -4.280330    0.525984    0.081210
     20          6           0       -5.445847    1.238022    0.078205
     21          6           0       -6.738480    0.618778    0.069986
     22          6           0       -7.970980    1.218816    0.064016
     23          6           0       -9.147699    0.368486    0.051926
     24          6           0      -10.434641    0.808636    0.027911
     25          6           0      -11.699193    0.069112   -0.020539
     26          6           0      -11.734248   -1.463299    0.197935
     27          6           0       11.014600    1.853868    1.513234
     28          6           0       11.087577    2.209256   -0.996377
     29          6           0       12.878927   -2.293643   -0.398885
     30          6           0      -13.193238   -1.965187    0.357525
     31          6           0      -14.150237   -1.366308   -0.666817
     32          6           0      -14.197934    0.145875   -0.469969
     33          6           0      -12.839889    0.781111   -0.265939
     34          6           0      -11.014576   -1.853870    1.513220
     35          6           0      -11.087582   -2.209257   -0.996389
     36          6           0      -12.878932    2.293635   -0.398883
     37          6           0       -8.156563    2.717180    0.068498
     38          6           0       -2.769507    2.564242    0.088788
     39          6           0        2.769504   -2.564233    0.088790
     40          6           0        8.156557   -2.717177    0.068503
     41          1           0       13.552240    1.704444    1.363722
     42          1           0       13.191791    3.061587    0.302962
     43          1           0       15.153148    1.798268   -0.563053
     44          1           0       13.813091    1.597755   -1.685187
     45          1           0       14.836732   -0.392637    0.395545
     46          1           0       14.685170   -0.631298   -1.328645
     47          1           0       10.553209   -1.886254   -0.000126
     48          1           0        8.931571    0.694424    0.048253
     49          1           0        6.727188    0.472294    0.066595
     50          1           0        5.394190   -2.323329    0.080545
     51          1           0        4.354073    0.562407    0.078511
     52          1           0        2.136434    0.876729    0.085263
     53          1           0        0.172471   -1.521700    0.088524
     54          1           0       -0.172472    1.521709    0.088521
     55          1           0       -2.136435   -0.876720    0.085267
     56          1           0       -4.354074   -0.562400    0.078514
     57          1           0       -5.394193    2.323335    0.080538
     58          1           0       -6.727188   -0.472289    0.066588
     59          1           0       -8.931568   -0.694423    0.048240
     60          1           0      -10.553213    1.886252   -0.000123
     61          1           0       11.416560    1.280584    2.356412
     62          1           0       11.183965    2.918133    1.720013
     63          1           0        9.936160    1.690871    1.488587
     64          1           0       10.062275    1.884980   -1.187807
     65          1           0       11.067226    3.288779   -0.800274
     66          1           0       11.653135    2.045583   -1.919919
     67          1           0       13.913764   -2.648960   -0.350635
     68          1           0       12.324510   -2.809583    0.392139
     69          1           0       12.468777   -2.633235   -1.360075
     70          1           0      -13.191780   -3.061594    0.302976
     71          1           0      -13.552222   -1.704450    1.363737
     72          1           0      -15.153149   -1.798281   -0.563022
     73          1           0      -13.813104   -1.597768   -1.685170
     74          1           0      -14.836727    0.392627    0.395567
     75          1           0      -14.685183    0.631285   -1.328625
     76          1           0      -11.183932   -2.918136    1.719999
     77          1           0       -9.936137   -1.690867    1.488558
     78          1           0      -11.416527   -1.280589    2.356403
     79          1           0      -10.062283   -1.884978   -1.187830
     80          1           0      -11.067226   -3.288781   -0.800288
     81          1           0      -11.653150   -2.045585   -1.919926
     82          1           0      -13.913771    2.648951   -0.350639
     83          1           0      -12.324521    2.809577    0.392144
     84          1           0      -12.468777    2.633229   -1.360071
     85          1           0       -8.744087    3.036457    0.938730
     86          1           0       -7.209146    3.257946    0.093047
     87          1           0       -8.704221    3.047232   -0.823677
     88          1           0       -3.248036    3.011075    0.969534
     89          1           0       -1.721470    2.868026    0.092705
     90          1           0       -3.242385    3.013831   -0.793611
     91          1           0        3.242396   -3.013825   -0.793600
     92          1           0        3.248019   -3.011063    0.969546
     93          1           0        1.721466   -2.868016    0.092692
     94          1           0        7.209140   -3.257941    0.093061
     95          1           0        8.704208   -3.047230   -0.823677
     96          1           0        8.744089   -3.036455    0.938730
 ---------------------------------------------------------------------
 Rotational constants (GHZ):           0.3478418           0.0099525           0.0097368
 Standard basis: def2TZVP (5D, 7F)
 There are  1776 symmetry adapted cartesian basis functions of A   symmetry.
 There are  1576 symmetry adapted basis functions of A   symmetry.
  1576 basis functions,  2488 primitive gaussians,  1776 cartesian basis functions
   148 alpha electrons      148 beta electrons
       nuclear repulsion energy      3637.1617565307 Hartrees.
 NAtoms=   96 NActive=   96 NUniq=   96 SFac= 1.00D+00 NAtFMM=   60 NAOKFM=T Big=T
 Integral buffers will be    131072 words long.
 Regular integral format.
 Two-electron integral symmetry is turned on.
 ------------------------------------------------------------------------------
 Polarizable Continuum Model (PCM)
 =================================
 Model                : PCM.
 Atomic radii         : SMD-Coulomb.
 Polarization charges : Total charges.
 Charge compensation  : None.
 Solution method      : On-the-fly selection.
 Cavity type          : VdW (van der Waals Surface) (Alpha=1.000).
 Cavity algorithm     : GePol (No added spheres)
                        Default sphere list used, NSphG=   96.
                        Lebedev-Laikov grids with approx.  5.0 points / Ang**2.
                        Smoothing algorithm: York/Karplus (Gamma=1.0000).
                        Polarization charges: spherical gaussians, with
                                              point-specific exponents (IZeta= 3).
                        Self-potential: point-specific (ISelfS= 7).
                        Self-field    : sphere-specific E.n sum rule (ISelfD= 2).
 Solvent              : Ethanol, Eps=  24.852000 Eps(inf)=   1.852593
 ------------------------------------------------------------------------------
 ------------------------------------------------------------------------------
 Atomic radii for non-electrostatic terms: SMD-CDS.
 ------------------------------------------------------------------------------
 Nuclear repulsion after PCM non-electrostatic terms =     3637.1521877144 Hartrees.
 One-electron integrals computed using PRISM.
   1 Symmetry operations used in ECPInt.
 ECPInt:  NShTT=  220780 NPrTT=  646864 LenC2=  101855 LenP2D=  205935.
 LDataN:  DoStor=T MaxTD1= 6 Len=  172
 NBasis=  1576 RedAO= T EigKep=  1.02D-05  NBF=  1576
 NBsUse=  1576 1.00D-06 EigRej= -1.00D+00 NBFU=  1576
 ExpMin= 9.52D-02 ExpMax= 1.36D+04 ExpMxC= 4.63D+02 IAcc=3 IRadAn=         5 AccDes= 0.00D+00
 Harris functional with IExCor= 1009 and IRadAn=       5 diagonalized for initial guess.
 HarFok:  IExCor= 1009 AccDes= 0.00D+00 IRadAn=         5 IDoV= 1 UseB2=F ITyADJ=14
 ICtDFT=  3500011 ScaDFX=  1.000000  1.000000  1.000000  1.000000
 FoFCou: FMM=F IPFlag=           0 FMFlag=      100000 FMFlg1=        2001
         NFxFlg=           0 DoJE=T BraDBF=F KetDBF=T FulRan=T
         wScrn=  0.000000 ICntrl=       500 IOpCl=  0 I1Cent=   200000004 NGrid=           0
         NMat0=    1 NMatS0=      1 NMatT0=    0 NMatD0=    1 NMtDS0=    0 NMtDT0=    0
 Petite list used in FoFCou.
 Requested convergence on RMS density matrix=1.00D-08 within 128 cycles.
 Requested convergence on MAX density matrix=1.00D-06.
 Requested convergence on             energy=1.00D-06.
 No special actions if energy rises.
 Inv3:  Mode=1 IEnd=   125194800.
 Iteration    1 A*A^-1 deviation from unit magnitude is 3.33D-15 for   4730.
 Iteration    1 A*A^-1 deviation from orthogonality  is 2.85D-15 for   4669    717.
 Iteration    1 A^-1*A deviation from unit magnitude is 3.33D-15 for   4863.
 Iteration    1 A^-1*A deviation from orthogonality  is 3.57D-15 for   4759   1478.
 Error on total polarization charges =  0.11506
 SCF Done:  E(RPBE+HF-PBE) =  -1556.68131702     A.U. after   12 cycles
            NFock= 12  Conv=0.52D-08     -V/T= 2.0064
 SMD-CDS (non-electrostatic) energy       (kcal/mol) =      -6.00
 (included in total energy above)
 DoSCS=F DFT=T ScalE2(SS,OS)=  1.000000  1.000000
 ExpMin= 9.52D-02 ExpMax= 1.36D+04 ExpMxC= 4.63D+02 IAcc=3 IRadAn=         5 AccDes= 0.00D+00
 HarFok:  IExCor=  205 AccDes= 0.00D+00 IRadAn=         5 IDoV=-2 UseB2=F ITyADJ=14
 ICtDFT= 12500011 ScaDFX=  1.000000  1.000000  1.000000  1.000000
 GSVD:  LWork=       -1920 too small for GESVD, short by        8600 words or        8600 for optimal perf.
 Range of M.O.s used for correlation:    41  1576
 NBasis=  1576 NAE=   148 NBE=   148 NFC=    40 NFV=     0
 NROrb=   1536 NOA=   108 NOB=   108 NVA=  1428 NVB=  1428

 **** Warning!!: The largest alpha MO coefficient is  0.29246378D+02

 NEqPCM:  Using non-equilibrium solvation (IEInf=1, Eps=  24.8520, EpsInf=   1.8526)
 Inv3:  Mode=1 IEnd=   125194800.
 Iteration    1 A*A^-1 deviation from unit magnitude is 3.89D-15 for    356.
 Iteration    1 A*A^-1 deviation from orthogonality  is 2.11D-15 for   4777   1517.
 Iteration    1 A^-1*A deviation from unit magnitude is 3.55D-15 for   4687.
 Iteration    1 A^-1*A deviation from orthogonality  is 2.09D-15 for   4076   2226.
 Orbital symmetries:
       Occupied  (A) (A) (A) (A) (A) (A) (A) (A) (A) (A) (A) (A)
                 (A) (A) (A) (A) (A) (A) (A) (A) (A) (A) (A) (A)
                 (A) (A) (A) (A) (A) (A) (A) (A) (A) (A) (A) (A)
                 (A) (A) (A) (A) (A) (A) (A) (A) (A) (A) (A) (A)
                 (A) (A) (A) (A) (A) (A) (A) (A) (A) (A) (A) (A)
                 (A) (A) (A) (A) (A) (A) (A) (A) (A) (A) (A) (A)
                 (A) (A) (A) (A) (A) (A) (A) (A) (A) (A) (A) (A)
                 (A) (A) (A) (A) (A) (A) (A) (A) (A) (A) (A) (A)
                 (A) (A) (A) (A) (A) (A) (A) (A) (A) (A) (A) (A)
                 (A) (A) (A) (A) (A) (A) (A) (A) (A) (A) (A) (A)
                 (A) (A) (A) (A) (A) (A) (A) (A) (A) (A) (A) (A)
                 (A) (A) (A) (A) (A) (A) (A) (A) (A) (A) (A) (A)
                 (A) (A) (A) (A)
       Virtual   (A) (A) (A) (A) (A) (A) (A) (A) (A) (A) (A) (A)
                 (A) (A) (A) (A) (A) (A) (A) (A) (A) (A) (A) (A)
                 (A) (A) (A) (A) (A) (A) (A) (A) (A) (A) (A) (A)
                 (A) (A) (A) (A) (A) (A) (A) (A) (A) (A) (A) (A)
                 (A) (A) (A) (A) (A) (A) (A) (A) (A) (A) (A) (A)
                 (A) (A) (A) (A) (A) (A) (A) (A) (A) (A) (A) (A)
                 (A) (A) (A) (A) (A) (A) (A) (A) (A) (A) (A) (A)
                 (A) (A) (A) (A) (A) (A) (A) (A) (A) (A) (A) (A)
                 (A) (A) (A) (A) (A) (A) (A) (A) (A) (A) (A) (A)
                 (A) (A) (A) (A) (A) (A) (A) (A) (A) (A) (A) (A)
                 (A) (A) (A) (A) (A) (A) (A) (A) (A) (A) (A) (A)
                 (A) (A) (A) (A) (A) (A) (A) (A) (A) (A) (A) (A)
                 (A) (A) (A) (A) (A) (A) (A) (A) (A) (A) (A) (A)
                 (A) (A) (A) (A) (A) (A) (A) (A) (A) (A) (A) (A)
                 (A) (A) (A) (A) (A) (A) (A) (A) (A) (A) (A) (A)
                 (A) (A) (A) (A) (A) (A) (A) (A) (A) (A) (A) (A)
                 (A) (A) (A) (A) (A) (A) (A) (A) (A) (A) (A) (A)
                 (A) (A) (A) (A) (A) (A) (A) (A) (A) (A) (A) (A)
                 (A) (A) (A) (A) (A) (A) (A) (A) (A) (A) (A) (A)
                 (A) (A) (A) (A) (A) (A) (A) (A) (A) (A) (A) (A)
                 (A) (A) (A) (A) (A) (A) (A) (A) (A) (A) (A) (A)
                 (A) (A) (A) (A) (A) (A) (A) (A) (A) (A) (A) (A)
                 (A) (A) (A) (A) (A) (A) (A) (A) (A) (A) (A) (A)
                 (A) (A) (A) (A) (A) (A) (A) (A) (A) (A) (A) (A)
                 (A) (A) (A) (A) (A) (A) (A) (A) (A) (A) (A) (A)
                 (A) (A) (A) (A) (A) (A) (A) (A) (A) (A) (A) (A)
                 (A) (A) (A) (A) (A) (A) (A) (A) (A) (A) (A) (A)
                 (A) (A) (A) (A) (A) (A) (A) (A) (A) (A) (A) (A)
                 (A) (A) (A) (A) (A) (A) (A) (A) (A) (A) (A) (A)
                 (A) (A) (A) (A) (A) (A) (A) (A) (A) (A) (A) (A)
                 (A) (A) (A) (A) (A) (A) (A) (A) (A) (A) (A) (A)
                 (A) (A) (A) (A) (A) (A) (A) (A) (A) (A) (A) (A)
                 (A) (A) (A) (A) (A) (A) (A) (A) (A) (A) (A) (A)
                 (A) (A) (A) (A) (A) (A) (A) (A) (A) (A) (A) (A)
                 (A) (A) (A) (A) (A) (A) (A) (A) (A) (A) (A) (A)
                 (A) (A) (A) (A) (A) (A) (A) (A) (A) (A) (A) (A)
                 (A) (A) (A) (A) (A) (A) (A) (A) (A) (A) (A) (A)
                 (A) (A) (A) (A) (A) (A) (A) (A) (A) (A) (A) (A)
                 (A) (A) (A) (A) (A) (A) (A) (A) (A) (A) (A) (A)
                 (A) (A) (A) (A) (A) (A) (A) (A) (A) (A) (A) (A)
                 (A) (A) (A) (A) (A) (A) (A) (A) (A) (A) (A) (A)
                 (A) (A) (A) (A) (A) (A) (A) (A) (A) (A) (A) (A)
                 (A) (A) (A) (A) (A) (A) (A) (A) (A) (A) (A) (A)
                 (A) (A) (A) (A) (A) (A) (A) (A) (A) (A) (A) (A)
                 (A) (A) (A) (A) (A) (A) (A) (A) (A) (A) (A) (A)
                 (A) (A) (A) (A) (A) (A) (A) (A) (A) (A) (A) (A)
                 (A) (A) (A) (A) (A) (A) (A) (A) (A) (A) (A) (A)
                 (A) (A) (A) (A) (A) (A) (A) (A) (A) (A) (A) (A)
                 (A) (A) (A) (A) (A) (A) (A) (A) (A) (A) (A) (A)
                 (A) (A) (A) (A) (A) (A) (A) (A) (A) (A) (A) (A)
                 (A) (A) (A) (A) (A) (A) (A) (A) (A) (A) (A) (A)
                 (A) (A) (A) (A) (A) (A) (A) (A) (A) (A) (A) (A)
                 (A) (A) (A) (A) (A) (A) (A) (A) (A) (A) (A) (A)
                 (A) (A) (A) (A) (A) (A) (A) (A) (A) (A) (A) (A)
                 (A) (A) (A) (A) (A) (A) (A) (A) (A) (A) (A) (A)
                 (A) (A) (A) (A) (A) (A) (A) (A) (A) (A) (A) (A)
                 (A) (A) (A) (A) (A) (A) (A) (A) (A) (A) (A) (A)
                 (A) (A) (A) (A) (A) (A) (A) (A) (A) (A) (A) (A)
                 (A) (A) (A) (A) (A) (A) (A) (A) (A) (A) (A) (A)
                 (A) (A) (A) (A) (A) (A) (A) (A) (A) (A) (A) (A)
                 (A) (A) (A) (A) (A) (A) (A) (A) (A) (A) (A) (A)
                 (A) (A) (A) (A) (A) (A) (A) (A) (A) (A) (A) (A)
                 (A) (A) (A) (A) (A) (A) (A) (A) (A) (A) (A) (A)
                 (A) (A) (A) (A) (A) (A) (A) (A) (A) (A) (A) (A)
                 (A) (A) (A) (A) (A) (A) (A) (A) (A) (A) (A) (A)
                 (A) (A) (A) (A) (A) (A) (A) (A) (A) (A) (A) (A)
                 (A) (A) (A) (A) (A) (A) (A) (A) (A) (A) (A) (A)
                 (A) (A) (A) (A) (A) (A) (A) (A) (A) (A) (A) (A)
                 (A) (A) (A) (A) (A) (A) (A) (A) (A) (A) (A) (A)
                 (A) (A) (A) (A) (A) (A) (A) (A) (A) (A) (A) (A)
                 (A) (A) (A) (A) (A) (A) (A) (A) (A) (A) (A) (A)
                 (A) (A) (A) (A) (A) (A) (A) (A) (A) (A) (A) (A)
                 (A) (A) (A) (A) (A) (A) (A) (A) (A) (A) (A) (A)
                 (A) (A) (A) (A) (A) (A) (A) (A) (A) (A) (A) (A)
                 (A) (A) (A) (A) (A) (A) (A) (A) (A) (A) (A) (A)
                 (A) (A) (A) (A) (A) (A) (A) (A) (A) (A) (A) (A)
                 (A) (A) (A) (A) (A) (A) (A) (A) (A) (A) (A) (A)
                 (A) (A) (A) (A) (A) (A) (A) (A) (A) (A) (A) (A)
                 (A) (A) (A) (A) (A) (A) (A) (A) (A) (A) (A) (A)
                 (A) (A) (A) (A) (A) (A) (A) (A) (A) (A) (A) (A)
                 (A) (A) (A) (A) (A) (A) (A) (A) (A) (A) (A) (A)
                 (A) (A) (A) (A) (A) (A) (A) (A) (A) (A) (A) (A)
                 (A) (A) (A) (A) (A) (A) (A) (A) (A) (A) (A) (A)
                 (A) (A) (A) (A) (A) (A) (A) (A) (A) (A) (A) (A)
                 (A) (A) (A) (A) (A) (A) (A) (A) (A) (A) (A) (A)
                 (A) (A) (A) (A) (A) (A) (A) (A) (A) (A) (A) (A)
                 (A) (A) (A) (A) (A) (A) (A) (A) (A) (A) (A) (A)
                 (A) (A) (A) (A) (A) (A) (A) (A) (A) (A) (A) (A)
                 (A) (A) (A) (A) (A) (A) (A) (A) (A) (A) (A) (A)
                 (A) (A) (A) (A) (A) (A) (A) (A) (A) (A) (A) (A)
                 (A) (A) (A) (A) (A) (A) (A) (A) (A) (A) (A) (A)
                 (A) (A) (A) (A) (A) (A) (A) (A) (A) (A) (A) (A)
                 (A) (A) (A) (A) (A) (A) (A) (A) (A) (A) (A) (A)
                 (A) (A) (A) (A) (A) (A) (A) (A) (A) (A) (A) (A)
                 (A) (A) (A) (A) (A) (A) (A) (A) (A) (A) (A) (A)
                 (A) (A) (A) (A) (A) (A) (A) (A) (A) (A) (A) (A)
                 (A) (A) (A) (A) (A) (A) (A) (A) (A) (A) (A) (A)
                 (A) (A) (A) (A) (A) (A) (A) (A) (A) (A) (A) (A)
                 (A) (A) (A) (A) (A) (A) (A) (A) (A) (A) (A) (A)
                 (A) (A) (A) (A) (A) (A) (A) (A) (A) (A) (A) (A)
                 (A) (A) (A) (A) (A) (A) (A) (A) (A) (A) (A) (A)
                 (A) (A) (A) (A) (A) (A) (A) (A) (A) (A) (A) (A)
                 (A) (A) (A) (A) (A) (A) (A) (A) (A) (A) (A) (A)
                 (A) (A) (A) (A) (A) (A) (A) (A) (A) (A) (A) (A)
                 (A) (A) (A) (A) (A) (A) (A) (A) (A) (A) (A) (A)
                 (A) (A) (A) (A) (A) (A) (A) (A) (A) (A) (A) (A)
                 (A) (A) (A) (A) (A) (A) (A) (A) (A) (A) (A) (A)
                 (A) (A) (A) (A) (A) (A) (A) (A) (A) (A) (A) (A)
                 (A) (A) (A) (A) (A) (A) (A) (A) (A) (A) (A) (A)
                 (A) (A) (A) (A) (A) (A) (A) (A) (A) (A) (A) (A)
                 (A) (A) (A) (A) (A) (A) (A) (A) (A) (A) (A) (A)
                 (A) (A) (A) (A) (A) (A) (A) (A) (A) (A) (A) (A)
                 (A) (A) (A) (A) (A) (A) (A) (A) (A) (A) (A) (A)
                 (A) (A) (A) (A) (A) (A) (A) (A) (A) (A) (A) (A)
                 (A) (A) (A) (A) (A) (A) (A) (A) (A) (A) (A) (A)
                 (A) (A) (A) (A) (A) (A) (A) (A) (A) (A) (A) (A)
                 (A) (A) (A) (A) (A) (A) (A) (A) (A) (A) (A) (A)
                 (A) (A) (A) (A) (A) (A) (A) (A) (A) (A) (A) (A)
                 (A) (A) (A) (A) (A) (A) (A) (A) (A) (A) (A) (A)
   600 initial guesses have been made.
 Convergence on wavefunction:    0.001000000000000
 Iteration     1 Dimension   600 NMult     0 NNew    600
 CISAX will form    72 AO SS matrices at one time.
 New state      6 was old state      7
 New state      7 was old state      6
 New state      9 was old state     10
 New state     10 was old state      9
 New state     11 was old state     14
 New state     13 was old state     17
 New state     14 was old state     18
 New state     15 was old state     11
 New state     16 was old state     20
 New state     17 was old state     13
 New state     18 was old state     19
 New state     19 was old state     16
 New state     20 was old state     21
 New state     21 was old state     24
 New state     23 was old state     25
 New state     24 was old state     23
 New state     25 was old state     26
 New state     26 was old state     34
 New state     27 was old state     33
 New state     28 was old state     32
 New state     30 was old state     41
 New state     31 was old state     27
 New state     32 was old state     48
 New state     33 was old state     59
 New state     34 was old state     37
 New state     35 was old state     28
 New state     36 was old state     63
 New state     37 was old state     44
 New state     38 was old state     42
 New state     39 was old state     31
 New state     40 was old state     72
 New state     41 was old state     38
 New state     42 was old state     36
 New state     43 was old state     35
 New state     44 was old state     30
 New state     45 was old state     49
 New state     46 was old state     45
 New state     47 was old state     39
 New state     48 was old state     40
 New state     49 was old state     47
 New state     50 was old state     89
 New state     51 was old state     53
 New state     52 was old state     46
 New state     53 was old state     54
 New state     54 was old state     81
 New state     55 was old state     51
 New state     56 was old state     50
 New state     57 was old state     99
 New state     58 was old state     52
 New state     59 was old state     55
 New state     60 was old state    112
 New state     61 was old state    108
 New state     62 was old state     71
 New state     63 was old state     65
 New state     64 was old state     67
 New state     65 was old state     68
 New state     66 was old state     70
 New state     67 was old state     66
 New state     68 was old state     58
 New state     70 was old state     61
 New state     71 was old state     64
 New state     72 was old state    110
 New state     74 was old state    118
 New state     75 was old state     80
 New state     76 was old state     83
 New state     77 was old state     95
 New state     78 was old state     82
 New state     79 was old state     74
 New state     80 was old state     75
 New state     81 was old state    109
 New state     82 was old state     62
 New state     83 was old state     78
 New state     84 was old state     77
 New state     86 was old state     79
 New state     87 was old state    133
 New state     89 was old state     84
 New state     90 was old state     87
 New state     91 was old state    168
 New state     92 was old state     94
 New state     93 was old state    107
 New state     94 was old state     92
 New state     95 was old state    198
 New state     96 was old state    113
 New state     97 was old state     86
 New state     98 was old state    135
 New state     99 was old state     91
 New state    100 was old state     93
 New state    101 was old state     96
 New state    102 was old state    106
 New state    103 was old state     97
 New state    104 was old state    100
 New state    105 was old state    104
 New state    106 was old state    103
 New state    107 was old state    141
 New state    108 was old state     98
 New state    109 was old state    102
 New state    110 was old state    123
 New state    111 was old state    126
 New state    112 was old state    151
 New state    113 was old state    177
 New state    114 was old state    176
 New state    115 was old state    132
 New state    116 was old state    105
 New state    117 was old state    134
 New state    118 was old state    119
 New state    119 was old state    114
 New state    120 was old state    116
 New state    121 was old state    139
 New state    122 was old state    121
 New state    123 was old state    159
 New state    124 was old state    180
 New state    125 was old state    150
 New state    126 was old state    143
 New state    127 was old state    115
 New state    128 was old state    182
 New state    129 was old state    111
 New state    130 was old state    206
 New state    131 was old state    122
 New state    132 was old state    124
 New state    133 was old state    120
 New state    134 was old state    117
 New state    135 was old state    127
 New state    136 was old state    125
 New state    137 was old state    129
 New state    138 was old state    131
 New state    139 was old state    188
 New state    141 was old state    136
 New state    142 was old state    189
 New state    143 was old state    144
 New state    144 was old state    153
 New state    145 was old state    128
 New state    146 was old state     76
 New state    147 was old state    130
 New state    148 was old state    137
 New state    149 was old state    142
 New state    150 was old state    138
 Iteration     2 Dimension   900 NMult   600 NNew    300
 New state      5 was old state      7
 New state      6 was old state      5
 New state      7 was old state      6
 New state     10 was old state     11
 New state     11 was old state     10
 New state     13 was old state     15
 New state     14 was old state     32
 New state     15 was old state     13
 New state     16 was old state     14
 New state     18 was old state     16
 New state     19 was old state     18
 New state     20 was old state     19
 New state     21 was old state     20
 New state     23 was old state     21
 New state     25 was old state     23
 New state     26 was old state     55
 New state     27 was old state     25
 New state     28 was old state     27
 New state     29 was old state     26
 New state     30 was old state     29
 New state     31 was old state     30
 New state     32 was old state     28
 New state     34 was old state     31
 New state     35 was old state     37
 New state     37 was old state     34
 New state     38 was old state     35
 New state     40 was old state     38
 New state     41 was old state     40
 New state     42 was old state     41
 New state     43 was old state     44
 New state     44 was old state     42
 New state     45 was old state     43
 New state     47 was old state     45
 New state     48 was old state     49
 New state     49 was old state     47
 New state     50 was old state     56
 New state     51 was old state     50
 New state     52 was old state     48
 New state     54 was old state     58
 New state     55 was old state     51
 New state     56 was old state     52
 New state     57 was old state     54
 New state     58 was old state     68
 New state     59 was old state     61
 New state     60 was old state     59
 New state     61 was old state     60
 New state     62 was old state     57
 New state     63 was old state     78
 New state     64 was old state     66
 New state     65 was old state     82
 New state     66 was old state     62
 New state     67 was old state     64
 New state     68 was old state     65
 New state     69 was old state     72
 New state     70 was old state     63
 New state     71 was old state     67
 New state     72 was old state     69
 New state     73 was old state     70
 New state     74 was old state     83
 New state     75 was old state     71
 New state     76 was old state     75
 New state     77 was old state     76
 New state     78 was old state     73
 New state     79 was old state     74
 New state     80 was old state     77
 New state     81 was old state     84
 New state     82 was old state     86
 New state     83 was old state     80
 New state     84 was old state     79
 New state     86 was old state     81
 New state     87 was old state     92
 New state     88 was old state     89
 New state     89 was old state     87
 New state     90 was old state     88
 New state     92 was old state     90
 New state     93 was old state     97
 New state     94 was old state     93
 New state     95 was old state     96
 New state     96 was old state     94
 New state     97 was old state     95
 New state     98 was old state    100
 New state    100 was old state     98
 New state    101 was old state    102
 New state    102 was old state    105
 New state    105 was old state    101
 New state    106 was old state    107
 New state    107 was old state    114
 New state    108 was old state    109
 New state    109 was old state    106
 No map to state    110
 New state    111 was old state    112
 New state    112 was old state    111
 New state    113 was old state    108
 New state    114 was old state    115
 New state    115 was old state    110
 New state    116 was old state    113
 New state    118 was old state    121
 New state    119 was old state    116
 New state    120 was old state    118
 New state    121 was old state    120
 New state    122 was old state    119
 New state    123 was old state    124
 New state    124 was old state    130
 New state    125 was old state    122
 New state    127 was old state    123
 New state    128 was old state    150
 New state    129 was old state    125
 New state    130 was old state    129
 New state    131 was old state    127
 New state    132 was old state    128
 New state    134 was old state    148
 New state    135 was old state    131
 New state    136 was old state    134
 New state    138 was old state    132
 New state    139 was old state    135
 New state    140 was old state    138
 New state    141 was old state    136
 New state    142 was old state    141
 New state    143 was old state    140
 New state    145 was old state    142
 New state    146 was old state    143
 New state    147 was old state    146
 New state    148 was old state    145
 New state    149 was old state    151
 New state    150 was old state    149
 Iteration     3 Dimension  1200 NMult   900 NNew    300
 New state     49 was old state     50
 New state     50 was old state     49
 New state     64 was old state     65
 New state     65 was old state     64
 New state     66 was old state     67
 New state     67 was old state     66
 New state     71 was old state     72
 New state     72 was old state     71
 New state    110 was old state    111
 New state    111 was old state    110
 New state    133 was old state    134
 New state    134 was old state    133
 Iteration     4 Dimension  1500 NMult  1200 NNew    300
 Iteration     5 Dimension  1636 NMult  1500 NNew    136
 Iteration     6 Dimension  1638 NMult  1636 NNew      2
 Convergence on energies, max DE= 8.23D-06.
 ***********************************************************************
 Excited states from <AA,BB:AA,BB> singles matrix:
 ***********************************************************************
 
 Ground to excited state transition densities written to RWF  633
 Ground to excited state transition electric dipole moments (Au):
       state          X           Y           Z        Dip. S.      Osc.
         1         9.2582     -1.3194     -0.0000     87.4549      4.6002
         2        -0.0000      0.0000     -0.1032      0.0106      0.0008
         3         0.0000      0.0000      0.1573      0.0248      0.0020
         4         0.0857      0.5984     -0.0000      0.3654      0.0329
         5        -2.4195     -0.2517      0.0000      5.9173      0.5887
         6         0.0048     -0.6746      0.0000      0.4551      0.0466
         7         0.0000      0.0000     -0.0658      0.0043      0.0005
         8         0.0000     -0.0000      0.1403      0.0197      0.0023
         9        -0.2533     -0.2280      0.0000      0.1162      0.0138
        10         0.0000      0.0000      0.1660      0.0276      0.0033
        11        -0.0000     -0.0000      0.0525      0.0028      0.0003
        12        -0.2950      0.2502      0.0000      0.1496      0.0198
        13        -0.0000      0.0000      0.0012      0.0000      0.0000
        14         0.5215     -0.6415     -0.0000      0.6835      0.0927
        15        -0.1915      0.0694      0.0000      0.0415      0.0057
        16         0.0001     -0.0000      0.0067      0.0000      0.0000
        17        -0.6808      0.4489      0.0000      0.6650      0.0932
        18         0.0521     -0.0568     -0.0001      0.0059      0.0008
        19        -0.0000      0.0000     -0.3061      0.0937      0.0133
        20        -0.0963     -0.1612      0.0000      0.0353      0.0051
        21         0.0000     -0.0000      0.1197      0.0143      0.0021
        22        -0.0031     -0.0571      0.0000      0.0033      0.0005
        23        -0.1506     -0.0210      0.0000      0.0231      0.0034
        24        -0.0000      0.0000     -0.2210      0.0488      0.0072
        25         0.0000      0.0000     -0.1060      0.0112      0.0017
        26         0.0000     -0.0000      0.0450      0.0020      0.0003
        27        -0.0504      0.0785      0.0000      0.0087      0.0013
        28         0.0000     -0.0000      0.0178      0.0003      0.0000
        29         0.0128     -0.1063     -0.0000      0.0115      0.0018
        30         0.0000      0.0000      0.0346      0.0012      0.0002
        31        -0.0156      0.2018     -0.0000      0.0410      0.0063
        32         0.0729     -0.0526      0.0000      0.0081      0.0012
        33        -0.0211      0.0005     -0.0000      0.0004      0.0001
        34         0.0000      0.0000      0.0978      0.0096      0.0015
        35         0.0937     -0.1353     -0.0000      0.0271      0.0042
        36        -0.0000     -0.0000     -0.0249      0.0006      0.0001
        37        -0.0000     -0.0000      0.0023      0.0000      0.0000
        38         0.0000     -0.0000      0.0765      0.0059      0.0009
        39        -0.0000     -0.0000      0.0027      0.0000      0.0000
        40         0.0408      0.0076      0.0000      0.0017      0.0003
        41         0.0081      0.1352      0.0000      0.0184      0.0029
        42        -0.0204      0.0744      0.0000      0.0059      0.0010
        43         0.0000     -0.0000      0.0273      0.0007      0.0001
        44         0.0000      0.0002      0.0545      0.0030      0.0005
        45         0.0698      0.3454     -0.0000      0.1241      0.0202
        46         0.0000      0.0000     -0.0711      0.0051      0.0008
        47         0.0000     -0.0000     -0.0692      0.0048      0.0008
        48        -0.1511      0.2330     -0.0000      0.0771      0.0126
        49        -0.2517      0.1482      0.0000      0.0853      0.0140
        50         0.0675     -0.0694      0.0000      0.0094      0.0015
        51        -0.0000      0.0000      0.0404      0.0016      0.0003
        52         0.0000      0.0000     -0.0048      0.0000      0.0000
        53        -0.0000     -0.0000     -0.0553      0.0031      0.0005
        54         0.2190     -0.4704     -0.0000      0.2693      0.0448
        55        -0.0938      0.0809     -0.0000      0.0153      0.0026
        56        -0.1329      0.0020      0.0000      0.0177      0.0030
        57         0.0835     -0.0115     -0.0000      0.0071      0.0012
        58         0.0000      0.0000     -0.0056      0.0000      0.0000
        59         0.0179      0.0028      0.0000      0.0003      0.0001
        60         0.1251     -0.2342     -0.0000      0.0705      0.0121
        61        -0.0000      0.0000      0.0046      0.0000      0.0000
        62        -0.0000      0.0000      0.0150      0.0002      0.0000
        63        -0.1844      0.1883      0.0000      0.0695      0.0120
        64        -0.1013     -0.2573     -0.0000      0.0765      0.0133
        65        -0.0000     -0.0000      0.0431      0.0019      0.0003
        66        -0.0209      0.0512      0.0000      0.0031      0.0005
        67        -0.0000     -0.0000      0.0102      0.0001      0.0000
        68        -0.0450     -0.0127     -0.0000      0.0022      0.0004
        69         0.0000     -0.0000      0.0799      0.0064      0.0011
        70         0.0000      0.0000     -0.0090      0.0001      0.0000
        71         0.0000     -0.0000      0.1354      0.0183      0.0032
        72         0.0205      0.0270     -0.0000      0.0012      0.0002
        73        -0.4721      0.5781      0.0000      0.5571      0.0986
        74         0.0000     -0.0000     -0.0546      0.0030      0.0005
        75        -0.0000      0.0000      0.0617      0.0038      0.0007
        76        -0.0000      0.0000     -0.0147      0.0002      0.0000
        77         0.0833     -0.1392     -0.0000      0.0263      0.0047
        78         0.0946      0.0170     -0.0000      0.0092      0.0017
        79         0.0000      0.0000      0.1080      0.0117      0.0021
        80         0.0141     -0.1950      0.0000      0.0382      0.0069
        81        -0.0500      0.3460     -0.0000      0.1222      0.0220
        82        -0.1860      0.4549      0.0000      0.2415      0.0436
        83        -0.0000      0.0000     -0.0680      0.0046      0.0008
        84         0.0627     -0.0599      0.0000      0.0075      0.0014
        85        -0.0770      0.0745     -0.0000      0.0115      0.0021
        86         0.0000     -0.0000     -0.0003      0.0000      0.0000
        87         0.0000      0.0000      0.1220      0.0149      0.0027
        88        -0.0000     -0.0000     -0.0292      0.0009      0.0002
        89        -0.0000      0.0000      0.1124      0.0126      0.0023
        90         0.0879     -0.0475      0.0000      0.0100      0.0018
        91        -0.1055      0.0156     -0.0000      0.0114      0.0021
        92         0.0000      0.0000     -0.0126      0.0002      0.0000
        93        -0.0000      0.0000     -0.0546      0.0030      0.0005
        94         0.0505     -0.0025      0.0000      0.0026      0.0005
        95         0.0175      0.3039      0.0000      0.0926      0.0171
        96         0.0000      0.0000     -0.1086      0.0118      0.0022
        97         0.0000      0.0000      0.0534      0.0029      0.0005
        98         0.1779      0.2058     -0.0000      0.0740      0.0137
        99        -0.0000     -0.0000      0.0617      0.0038      0.0007
       100         0.4034      0.1874      0.0000      0.1979      0.0368
       101        -0.0000      0.0000     -0.0249      0.0006      0.0001
       102         0.1904     -0.4069     -0.0000      0.2018      0.0377
       103         0.1367     -0.1264      0.0000      0.0347      0.0065
       104        -0.0001      0.0000      0.0469      0.0022      0.0004
       105        -0.2118     -0.1035     -0.0000      0.0556      0.0104
       106        -0.0002     -0.0001      0.0294      0.0009      0.0002
       107        -0.0183      0.1948      0.0000      0.0383      0.0072
       108         0.0000      0.0000      0.0342      0.0012      0.0002
       109         0.0000      0.0000      0.0333      0.0011      0.0002
       110         0.0115     -0.0410      0.0000      0.0018      0.0003
       111         0.0000     -0.0000      0.0870      0.0076      0.0014
       112         0.2365      0.5315      0.0000      0.3384      0.0641
       113         0.1722      0.0783      0.0000      0.0358      0.0068
       114         0.0000      0.0000      0.0081      0.0001      0.0000
       115         0.0000      0.0000      0.0534      0.0029      0.0005
       116        -0.0000     -0.0000     -0.0042      0.0000      0.0000
       117        -0.0308      0.0187     -0.0000      0.0013      0.0002
       118        -0.0000      0.0000      0.0270      0.0007      0.0001
       119        -0.0000      0.0000      0.0087      0.0001      0.0000
       120         0.0000      0.0000      0.0228      0.0005      0.0001
       121        -0.0000      0.0000     -0.0195      0.0004      0.0001
       122        -0.0151      0.0211      0.0000      0.0007      0.0001
       123         0.0000      0.0000     -0.0588      0.0035      0.0007
       124        -0.0125     -0.0649     -0.0000      0.0044      0.0008
       125        -0.0809      0.2638     -0.0000      0.0761      0.0148
       126        -0.0632      0.2120      0.0000      0.0489      0.0095
       127         0.0000      0.0000      0.0346      0.0012      0.0002
       128        -0.1277      0.3056     -0.0000      0.1097      0.0214
       129        -0.0658      0.1702     -0.0000      0.0333      0.0065
       130         0.0000     -0.0000     -0.0521      0.0027      0.0005
       131         0.0425     -0.0512      0.0000      0.0044      0.0009
       132        -0.0000     -0.0000      0.0469      0.0022      0.0004
       133        -0.0088      0.0558      0.0000      0.0032      0.0006
       134         0.0000      0.0000     -0.0260      0.0007      0.0001
       135         0.0000      0.0000     -0.0574      0.0033      0.0007
       136        -0.0437      0.0621      0.0000      0.0058      0.0011
       137         0.0000     -0.0000     -0.0217      0.0005      0.0001
       138         0.0804     -0.0720      0.0000      0.0117      0.0023
       139        -0.0000     -0.0000      0.0136      0.0002      0.0000
       140         0.0298      0.1718      0.0000      0.0304      0.0060
       141        -0.0965     -0.0717      0.0000      0.0145      0.0029
       142        -0.0473      0.2539     -0.0000      0.0667      0.0133
       143        -0.0000      0.0000      0.1052      0.0111      0.0022
       144         0.0000     -0.0000      0.0606      0.0037      0.0007
       145        -0.0346      0.0254     -0.0000      0.0018      0.0004
       146         0.0084     -0.2546      0.0000      0.0649      0.0130
       147        -0.0000     -0.0000     -0.1455      0.0212      0.0042
       148         0.0000     -0.0000     -0.0926      0.0086      0.0017
       149         0.1001     -0.3028     -0.0000      0.1017      0.0204
       150        -0.0000      0.0000      0.0264      0.0007      0.0001
 Ground to excited state transition velocity dipole moments (Au):
       state          X           Y           Z        Dip. S.      Osc.
         1        -0.7275      0.1037     -0.0000      0.5400      4.5623
         2         0.0000      0.0000      0.0113      0.0001      0.0008
         3        -0.0000     -0.0000     -0.0189      0.0004      0.0020
         4        -0.0125     -0.0809      0.0000      0.0067      0.0331
         5         0.3594      0.0353      0.0000      0.1304      0.5827
         6        -0.0007      0.1029     -0.0000      0.0106      0.0459
         7        -0.0000      0.0000      0.0106      0.0001      0.0005
         8         0.0000     -0.0000     -0.0245      0.0006      0.0023
         9         0.0449      0.0404     -0.0000      0.0036      0.0137
        10        -0.0000     -0.0000     -0.0298      0.0009      0.0033
        11         0.0000     -0.0000     -0.0098      0.0001      0.0003
        12         0.0591     -0.0499     -0.0000      0.0060      0.0201
        13        -0.0000     -0.0000     -0.0002      0.0000      0.0000
        14        -0.1062      0.1321     -0.0000      0.0287      0.0942
        15         0.0399     -0.0147     -0.0000      0.0018      0.0058
        16        -0.0000      0.0000     -0.0020      0.0000      0.0000
        17         0.1413     -0.0947     -0.0000      0.0289      0.0918
        18        -0.0107      0.0119      0.0000      0.0003      0.0008
        19         0.0000     -0.0000      0.0686      0.0047      0.0147
        20         0.0200      0.0339     -0.0000      0.0015      0.0048
        21        -0.0000      0.0000     -0.0261      0.0007      0.0021
        22         0.0008      0.0127     -0.0000      0.0002      0.0005
        23         0.0329      0.0050     -0.0000      0.0011      0.0033
        24         0.0000      0.0000      0.0490      0.0024      0.0072
        25        -0.0000     -0.0000      0.0232      0.0005      0.0016
        26        -0.0000      0.0000     -0.0104      0.0001      0.0003
        27         0.0104     -0.0188     -0.0000      0.0005      0.0013
        28        -0.0000      0.0000     -0.0041      0.0000      0.0000
        29        -0.0019      0.0253     -0.0000      0.0006      0.0019
        30        -0.0000     -0.0000     -0.0077      0.0001      0.0002
        31         0.0021     -0.0472      0.0000      0.0022      0.0064
        32        -0.0162      0.0126     -0.0000      0.0004      0.0012
        33         0.0048     -0.0003      0.0000      0.0000      0.0001
        34        -0.0000     -0.0000     -0.0226      0.0005      0.0015
        35        -0.0235      0.0290      0.0000      0.0014      0.0040
        36        -0.0000     -0.0000      0.0062      0.0000      0.0001
        37         0.0000     -0.0000     -0.0015      0.0000      0.0000
        38        -0.0000      0.0000     -0.0184      0.0003      0.0010
        39         0.0000      0.0000     -0.0009      0.0000      0.0000
        40        -0.0103     -0.0020     -0.0000      0.0001      0.0003
        41        -0.0027     -0.0337      0.0000      0.0011      0.0032
        42         0.0049     -0.0180     -0.0000      0.0003      0.0010
        43        -0.0000      0.0000     -0.0068      0.0000      0.0001
        44        -0.0000     -0.0000     -0.0138      0.0002      0.0005
        45        -0.0159     -0.0825      0.0000      0.0071      0.0192
        46         0.0000     -0.0000      0.0180      0.0003      0.0009
        47        -0.0000      0.0000      0.0182      0.0003      0.0009
        48         0.0382     -0.0558      0.0000      0.0046      0.0124
        49         0.0627     -0.0349      0.0000      0.0052      0.0139
        50        -0.0162      0.0173     -0.0000      0.0006      0.0015
        51         0.0000     -0.0000     -0.0107      0.0001      0.0003
        52         0.0000     -0.0000      0.0022      0.0000      0.0000
        53         0.0000      0.0000      0.0138      0.0002      0.0005
        54        -0.0560      0.1160     -0.0000      0.0166      0.0443
        55         0.0235     -0.0213      0.0000      0.0010      0.0027
        56         0.0336     -0.0011     -0.0000      0.0011      0.0030
        57        -0.0210      0.0030     -0.0000      0.0005      0.0012
        58         0.0000     -0.0000      0.0015      0.0000      0.0000
        59        -0.0045     -0.0006     -0.0000      0.0000      0.0001
        60        -0.0322      0.0609      0.0000      0.0047      0.0123
        61         0.0000     -0.0000     -0.0003      0.0000      0.0000
        62         0.0000     -0.0000     -0.0028      0.0000      0.0000
        63         0.0471     -0.0495     -0.0000      0.0047      0.0120
        64         0.0266      0.0659      0.0000      0.0050      0.0129
        65         0.0000      0.0000     -0.0110      0.0001      0.0003
        66         0.0056     -0.0139     -0.0000      0.0002      0.0006
        67        -0.0000      0.0000     -0.0018      0.0000      0.0000
        68         0.0112      0.0047     -0.0000      0.0001      0.0004
        69        -0.0000      0.0000     -0.0233      0.0005      0.0014
        70         0.0000     -0.0000      0.0031      0.0000      0.0000
        71        -0.0000      0.0000     -0.0369      0.0014      0.0034
        72        -0.0064     -0.0050      0.0000      0.0001      0.0002
        73         0.1233     -0.1540     -0.0000      0.0389      0.0977
        74        -0.0000      0.0000      0.0127      0.0002      0.0004
        75         0.0000     -0.0000     -0.0182      0.0003      0.0008
        76         0.0000     -0.0000      0.0041      0.0000      0.0000
        77        -0.0220      0.0371      0.0000      0.0019      0.0046
        78        -0.0257     -0.0043      0.0000      0.0007      0.0017
        79        -0.0000     -0.0000     -0.0292      0.0009      0.0021
        80        -0.0034      0.0530      0.0000      0.0028      0.0070
        81         0.0135     -0.0921     -0.0000      0.0087      0.0214
        82         0.0506     -0.1213     -0.0000      0.0173      0.0425
        83         0.0000     -0.0000      0.0181      0.0003      0.0008
        84        -0.0167      0.0162     -0.0000      0.0005      0.0013
        85         0.0207     -0.0204      0.0000      0.0008      0.0021
        86        -0.0000      0.0000     -0.0010      0.0000      0.0000
        87        -0.0000     -0.0000     -0.0325      0.0011      0.0026
        88         0.0000      0.0000      0.0072      0.0001      0.0001
        89         0.0000     -0.0000     -0.0285      0.0008      0.0020
        90        -0.0238      0.0136     -0.0000      0.0008      0.0018
        91         0.0289     -0.0046      0.0000      0.0009      0.0021
        92         0.0000     -0.0000      0.0008      0.0000      0.0000
        93        -0.0000     -0.0000      0.0145      0.0002      0.0005
        94        -0.0125      0.0020     -0.0000      0.0002      0.0004
        95        -0.0051     -0.0831     -0.0000      0.0069      0.0167
        96        -0.0000     -0.0000      0.0295      0.0009      0.0021
        97        -0.0000     -0.0000     -0.0145      0.0002      0.0005
        98        -0.0494     -0.0569     -0.0000      0.0057      0.0136
        99         0.0000      0.0000     -0.0175      0.0003      0.0007
       100        -0.1127     -0.0536      0.0000      0.0156      0.0373
       101         0.0000     -0.0000      0.0073      0.0001      0.0001
       102        -0.0544      0.1144      0.0000      0.0160      0.0382
       103        -0.0389      0.0358     -0.0000      0.0028      0.0066
       104         0.0000     -0.0000     -0.0132      0.0002      0.0004
       105         0.0593      0.0289      0.0000      0.0043      0.0103
       106         0.0000      0.0000     -0.0081      0.0001      0.0002
       107         0.0053     -0.0555     -0.0000      0.0031      0.0074
       108        -0.0000     -0.0000     -0.0103      0.0001      0.0002
       109        -0.0000     -0.0000     -0.0089      0.0001      0.0002
       110        -0.0033      0.0118     -0.0000      0.0001      0.0004
       111        -0.0000      0.0000     -0.0256      0.0007      0.0015
       112        -0.0692     -0.1536     -0.0000      0.0284      0.0666
       113        -0.0495     -0.0227     -0.0000      0.0030      0.0069
       114        -0.0000      0.0000     -0.0024      0.0000      0.0000
       115         0.0000     -0.0000     -0.0176      0.0003      0.0007
       116         0.0000     -0.0000      0.0025      0.0000      0.0000
       117         0.0087     -0.0056     -0.0000      0.0001      0.0003
       118         0.0000     -0.0000     -0.0079      0.0001      0.0001
       119        -0.0000      0.0000     -0.0031      0.0000      0.0000
       120        -0.0000     -0.0000     -0.0065      0.0000      0.0001
       121        -0.0000      0.0000      0.0055      0.0000      0.0001
       122         0.0039     -0.0065     -0.0000      0.0001      0.0001
       123         0.0000      0.0000      0.0182      0.0003      0.0008
       124         0.0034      0.0188      0.0000      0.0004      0.0008
       125         0.0237     -0.0769      0.0000      0.0065      0.0148
       126         0.0183     -0.0618     -0.0000      0.0042      0.0095
       127        -0.0000     -0.0000     -0.0109      0.0001      0.0003
       128         0.0375     -0.0896      0.0000      0.0094      0.0214
       129         0.0176     -0.0502      0.0000      0.0028      0.0064
       130        -0.0000      0.0000      0.0151      0.0002      0.0005
       131        -0.0121      0.0152     -0.0000      0.0004      0.0009
       132         0.0000      0.0000     -0.0148      0.0002      0.0005
       133         0.0015     -0.0159     -0.0000      0.0003      0.0006
       134         0.0000     -0.0000      0.0088      0.0001      0.0002
       135        -0.0000     -0.0000      0.0174      0.0003      0.0007
       136         0.0141     -0.0178     -0.0000      0.0005      0.0012
       137        -0.0000      0.0000      0.0065      0.0000      0.0001
       138        -0.0232      0.0208     -0.0000      0.0010      0.0022
       139        -0.0000      0.0000     -0.0031      0.0000      0.0000
       140        -0.0078     -0.0501     -0.0000      0.0026      0.0058
       141         0.0279      0.0200      0.0000      0.0012      0.0026
       142         0.0135     -0.0760      0.0000      0.0060      0.0133
       143         0.0000     -0.0000     -0.0296      0.0009      0.0020
       144        -0.0000      0.0000     -0.0176      0.0003      0.0007
       145         0.0088     -0.0091      0.0000      0.0002      0.0004
       146        -0.0043      0.0747     -0.0000      0.0056      0.0124
       147         0.0000      0.0000      0.0430      0.0018      0.0041
       148        -0.0000      0.0000      0.0269      0.0007      0.0016
       149        -0.0299      0.0925      0.0000      0.0095      0.0209
       150         0.0000     -0.0000     -0.0087      0.0001      0.0002
 Ground to excited state transition magnetic dipole moments (Au):
       state          X           Y           Z
         1        -0.0236     -0.2874     -0.0000
         2         0.0000      0.0000     -0.6763
         3        -0.0000     -0.0000      0.6257
         4         0.0104     -0.2047     -0.0000
         5         0.0051      0.6133      0.0000
         6        -0.0137      0.2005     -0.0000
         7        -0.0000      0.0000     -0.2873
         8         0.0000     -0.0000     -0.4798
         9        -0.0116     -0.1642     -0.0000
        10         0.0000     -0.0000     -0.6261
        11         0.0000      0.0000      0.3462
        12         0.0231      0.4981      0.0000
        13         0.0000     -0.0000      0.4004
        14        -0.0488     -0.7452      0.0000
        15        -0.0868      0.3389     -0.0002
        16         0.0000     -0.0001     -0.4652
        17         0.0368      0.0458      0.0000
        18        -0.5773     -1.3483      0.0000
        19         0.0001      0.0003      0.2066
        20        -0.0177      0.1282     -0.0000
        21        -0.0000      0.0000     -1.0972
        22         0.1761      0.0142     -0.0000
        23        -0.1293     -0.0992     -0.0001
        24        -0.0000     -0.0000      1.7305
        25         0.0000      0.0000     -1.0790
        26        -0.0000      0.0000     -0.7625
        27         0.2654      0.3640      0.0001
        28        -0.0000     -0.0000      0.2825
        29        -0.0556     -0.1179     -0.0000
        30        -0.0000      0.0000     -0.2198
        31        -0.1617      0.2462      0.0001
        32         0.2306      0.7404     -0.0000
        33         0.0137     -0.1730     -0.0000
        34        -0.0000     -0.0000     -2.0099
        35        -0.0393      0.1189     -0.0000
        36         0.0000      0.0000     -0.2273
        37        -0.0000      0.0000      0.9499
        38        -0.0000     -0.0000     -1.2725
        39        -0.0000      0.0001     -0.3824
        40         0.0178     -0.1775     -0.0002
        41         0.0676      0.3838      0.0000
        42        -0.0306     -0.0165      0.0000
        43        -0.0000     -0.0000     -1.3988
        44         0.0001      0.0000     -1.7418
        45         0.1242      0.0496      0.0008
        46        -0.0000      0.0000     -0.3571
        47         0.0000     -0.0001      0.2078
        48        -0.0274      0.6283      0.0001
        49         0.0384      0.0846      0.0000
        50        -0.1480     -0.5238     -0.0001
        51         0.0000      0.0000     -0.7565
        52        -0.0000     -0.0000      0.1363
        53        -0.0000     -0.0000      1.5361
        54        -0.0028     -0.4508     -0.0000
        55         0.1913      0.6907      0.0000
        56        -0.1720     -0.4039     -0.0000
        57        -0.1603      0.3236     -0.0000
        58        -0.0000     -0.0000      1.2385
        59        -0.3231     -0.1622     -0.0000
        60        -0.0512     -0.5169     -0.0000
        61        -0.0000      0.0000      0.3863
        62         0.0000      0.0000      0.2573
        63         0.0259     -0.2395     -0.0000
        64        -0.0173     -0.0038      0.0002
        65         0.0000      0.0000     -1.7386
        66         0.2616     -0.0306      0.0000
        67         0.0000     -0.0000      0.2184
        68         0.1621     -0.0536     -0.0000
        69        -0.0000      0.0000     -0.1806
        70        -0.0000      0.0000     -0.3702
        71        -0.0000     -0.0000     -2.0787
        72        -0.1610      0.2853      0.0001
        73         0.0360      0.4145     -0.0000
        74         0.0000      0.0000      0.7044
        75         0.0000      0.0000      0.0951
        76         0.0000      0.0000     -1.1326
        77        -0.4818     -0.7268     -0.0000
        78         0.0064      0.5051      0.0000
        79         0.0000      0.0000     -0.4376
        80         0.0042     -0.1046      0.0000
        81        -0.2235      0.1057      0.0000
        82         0.0816      0.1658      0.0000
        83         0.0000      0.0000      0.1358
        84         0.2093      0.6948      0.0000
        85        -0.3646      0.3217     -0.0000
        86        -0.0000      0.0000      0.5682
        87        -0.0000      0.0000     -1.3895
        88         0.0000      0.0000      0.0538
        89        -0.0000     -0.0000      0.5938
        90         0.2601      0.4094      0.0000
        91        -0.0298      0.1260     -0.0000
        92        -0.0000     -0.0000      0.1959
        93         0.0000      0.0000      1.7139
        94        -0.2536      0.1905     -0.0000
        95         0.0095      0.3484     -0.0000
        96         0.0000      0.0000      0.3703
        97         0.0000      0.0000     -0.5550
        98         0.3082      0.3548     -0.0001
        99        -0.0000     -0.0000     -3.1623
       100         0.1191      0.9388     -0.0003
       101        -0.0000     -0.0001      1.9504
       102        -0.0977     -0.4303      0.0002
       103        -0.2373     -0.8831     -0.0014
       104         0.0001      0.0004     -2.7549
       105         0.0064      0.0614      0.0013
       106        -0.0000      0.0000     -1.2133
       107        -0.2244     -0.2641     -0.0001
       108         0.0000     -0.0000      0.1944
       109         0.0000     -0.0000     -1.9216
       110        -0.1845      0.0283      0.0001
       111         0.0000      0.0000      1.1025
       112         0.0947     -0.2728      0.0000
       113        -0.3486      0.1292     -0.0001
       114         0.0000     -0.0000      0.8503
       115         0.0000      0.0000     -2.3891
       116         0.0000     -0.0000      0.3519
       117         0.5614      0.1199     -0.0000
       118         0.0000     -0.0000      0.5878
       119        -0.0000     -0.0000     -0.0345
       120         0.0000     -0.0000     -1.2727
       121        -0.0000     -0.0000     -0.3650
       122         0.0875      0.2876      0.0001
       123         0.0001      0.0000      0.0550
       124        -1.0537     -0.5954      0.0000
       125        -0.0564      0.2403      0.0000
       126        -0.2438      0.0810      0.0000
       127         0.0000      0.0000     -0.1153
       128         0.2206      0.5045      0.0000
       129         0.3307      0.0858      0.0006
       130        -0.0001     -0.0000      2.4852
       131         0.2202      0.0287     -0.0000
       132         0.0000      0.0000      0.6290
       133        -0.1573      0.3721      0.0000
       134        -0.0000      0.0001     -0.6073
       135        -0.0000      0.0000      1.1788
       136        -0.0881      0.0924      0.0000
       137         0.0000      0.0000     -0.7127
       138         0.0402      0.3456     -0.0000
       139        -0.0000      0.0001      0.5300
       140        -0.1252     -0.5055     -0.0000
       141        -0.1972     -0.9990     -0.0000
       142        -0.5170      0.4252     -0.0000
       143        -0.0000      0.0001      0.5292
       144         0.0000     -0.0000      0.0045
       145        -0.2048     -0.5075      0.0000
       146         0.2124      0.4401      0.0001
       147         0.0000      0.0000     -1.5709
       148        -0.0000     -0.0000      0.8542
       149        -0.1272     -0.1859     -0.0001
       150        -0.0000      0.0001     -1.7816
 Ground to excited state transition velocity quadrupole moments (Au):
       state          XX          YY          ZZ          XY          XZ          YZ
         1         0.0000     -0.0000      0.0000     -0.0000      0.1334     -0.0116
         2       -12.0738     -0.1846     -0.0266      0.5933     -0.0000     -0.0000
         3        19.5502      0.3399      0.0653     -1.2305      0.0000      0.0000
         4         0.0000      0.0000      0.0000      0.0000      0.2742     -0.0381
         5        -0.0000     -0.0000      0.0000      0.0000     -0.7072      0.0809
         6         0.0000      0.0000      0.0000     -0.0000     -0.2745      0.0436
         7        -0.0365      0.2277      0.0026     -0.7040     -0.0000      0.0000
         8         8.5088      0.1527      0.0119     -0.8760      0.0000     -0.0000
         9         0.0001     -0.0000      0.0000     -0.0000      0.2025     -0.0036
        10         8.7508     -0.0678      0.0290     -0.6378      0.0000      0.0000
        11        -0.6104     -0.4163     -0.0131      0.7760     -0.0000      0.0000
        12        -0.0000     -0.0000     -0.0000     -0.0000     -0.6050      0.0430
        13         2.0475     -0.2257      0.0073      0.4026      0.0000      0.0000
        14        -0.0000      0.0000      0.0000      0.0000      0.9326     -0.0580
        15        -0.0001     -0.0001      0.0000     -0.0002     -0.1475     -0.0619
        16        -0.1058     -0.1048      0.0091     -0.4092      0.0001      0.0000
        17        -0.0000     -0.0000      0.0000      0.0000     -0.0376      0.0117
        18        -0.0001      0.0000     -0.0000      0.0000      1.4167     -0.5143
        19        -0.2975      0.0094     -0.0661      0.1188     -0.0003      0.0001
        20         0.0000      0.0000     -0.0000     -0.0000     -0.1602      0.0103
        21         1.5219     -0.2201     -0.0395     -1.0227     -0.0000     -0.0000
        22        -0.0000     -0.0000     -0.0000     -0.0000     -0.0157      0.1157
        23         0.0001     -0.0000      0.0000     -0.0001     -0.0316     -0.0428
        24        -1.8055     -0.0856      0.0309      1.8288      0.0000     -0.0000
        25         0.9538      0.0253      0.0315     -1.0324     -0.0000      0.0000
        26         2.5914      0.0328     -0.0291     -0.7303     -0.0000     -0.0000
        27         0.0001      0.0000     -0.0000      0.0001     -0.2542      0.0976
        28         0.9335     -0.0586      0.0599      0.3034      0.0000     -0.0000
        29        -0.0001     -0.0000     -0.0000     -0.0000      0.1707     -0.0885
        30        -1.2421      0.0465      0.0441     -0.2027     -0.0000     -0.0000
        31        -0.0000     -0.0000     -0.0000      0.0001     -0.3035     -0.1139
        32         0.0001      0.0000      0.0000     -0.0000     -0.6715      0.1244
        33        -0.0000     -0.0000     -0.0000      0.0000      0.1870     -0.0243
        34         4.7919      0.2740     -0.0382     -2.4969      0.0000     -0.0000
        35         0.0001      0.0000      0.0000     -0.0000     -0.1438     -0.0161
        36         0.2540     -0.0056     -0.0123     -0.2010     -0.0000     -0.0000
        37        -1.2261     -0.0341      0.0061      0.8766     -0.0000     -0.0000
        38         3.0327     -0.0071     -0.0207     -1.3485      0.0000      0.0000
        39         0.3767      0.2803     -0.0029     -0.3065     -0.0001     -0.0000
        40         0.0001      0.0001     -0.0000     -0.0002      0.2046      0.0226
        41         0.0001      0.0000     -0.0000      0.0000     -0.4589      0.0655
        42        -0.0000     -0.0000     -0.0000      0.0000     -0.0662     -0.0329
        43         2.3833      0.5699      0.0251     -1.6548      0.0000     -0.0000
        44        -0.4681      0.0663     -0.0504     -1.5761     -0.0001      0.0000
        45         0.0002     -0.0000      0.0000      0.0007     -0.2385      0.0725
        46         0.0351      0.0314     -0.0762     -0.2909     -0.0000      0.0000
        47         0.9280      0.0264     -0.0892      0.0788      0.0001     -0.0000
        48         0.0002     -0.0000     -0.0000      0.0001     -0.5141     -0.0065
        49         0.0001     -0.0000     -0.0000      0.0000     -0.3444      0.0531
        50         0.0001     -0.0000      0.0000     -0.0001      0.5069     -0.1869
        51         0.5220      0.0195     -0.0221     -0.7145     -0.0000      0.0000
        52        -1.0082      0.1253     -0.0393      0.0793      0.0000     -0.0000
        53        -3.3114      0.1911      0.0827      1.5634      0.0000     -0.0000
        54         0.0000     -0.0000     -0.0000     -0.0001      0.4764     -0.0414
        55        -0.0000     -0.0000     -0.0000      0.0000     -0.7376      0.1055
        56         0.0001     -0.0000     -0.0000     -0.0000      0.2957     -0.0878
        57        -0.0000      0.0000      0.0000     -0.0000     -0.1704      0.0259
        58         0.1891     -0.9266     -0.0263      1.2093      0.0000     -0.0000
        59        -0.0001      0.0000     -0.0000     -0.0000      0.1338     -0.1428
        60        -0.0000     -0.0000      0.0000     -0.0000      0.5190     -0.0157
        61         0.3524      0.0694     -0.0046      0.2966     -0.0000     -0.0000
        62        -0.6234     -0.0406     -0.0110      0.2089     -0.0000      0.0000
        63         0.0000     -0.0000     -0.0000     -0.0000      0.0879      0.0680
        64        -0.0001      0.0000      0.0000      0.0002      0.0205     -0.0089
        65         1.1702     -0.1794     -0.0451     -1.6901     -0.0000      0.0000
        66        -0.0001      0.0000      0.0000      0.0000      0.2034      0.1492
        67         1.3388     -0.0864     -0.0346      0.0959      0.0000      0.0000
        68        -0.0000     -0.0000     -0.0000     -0.0000     -0.0254      0.0751
        69         0.3495     -0.0415      0.0717     -0.2014      0.0000     -0.0000
        70        -0.3695      0.0386      0.0503     -0.4119     -0.0000     -0.0000
        71         1.1456     -0.0545     -0.0999     -2.0592      0.0000     -0.0000
        72        -0.0000      0.0000     -0.0000      0.0001     -0.1866     -0.1549
        73        -0.0000     -0.0000     -0.0000     -0.0000     -0.4402     -0.0087
        74        -1.4945      0.1511      0.1017      0.8226     -0.0000     -0.0000
        75         0.3717     -0.0518      0.0695      0.0691     -0.0000     -0.0000
        76         2.3873     -0.2741     -0.0706     -1.1676     -0.0000      0.0000
        77         0.0001     -0.0000     -0.0000     -0.0000      0.6937     -0.1343
        78        -0.0000     -0.0000      0.0000      0.0000     -0.3467     -0.0026
        79        -0.9933      0.0458      0.0356     -0.3682     -0.0000      0.0000
        80         0.0000      0.0000     -0.0000      0.0000      0.1168     -0.0856
        81        -0.0001      0.0000     -0.0000      0.0000     -0.1555     -0.1155
        82         0.0001      0.0000      0.0000      0.0000     -0.1248      0.0133
        83        -0.9291     -0.0252     -0.0181      0.1963     -0.0000      0.0000
        84        -0.0000      0.0000     -0.0000      0.0000     -0.5680      0.1068
        85         0.0000      0.0000     -0.0000     -0.0000     -0.4479     -0.0751
        86        -0.7851      0.0548     -0.0396      0.5581     -0.0000     -0.0000
        87         1.6910     -0.1306     -0.0770     -1.5452     -0.0000      0.0000
        88        -0.2614      0.0115      0.0034      0.0420     -0.0000      0.0000
        89        -1.9166      0.1702     -0.0312      0.5909      0.0000     -0.0000
        90        -0.0002      0.0000     -0.0000      0.0000     -0.3772      0.1033
[...]
 Alpha virt. eigenvalues --    2.31523   2.31895   2.32084   2.32581   2.32585
 Alpha virt. eigenvalues --    2.33225   2.33495   2.34017   2.34033   2.34638
 Alpha virt. eigenvalues --    2.34661   2.35760   2.36077   2.36133   2.37607
 Alpha virt. eigenvalues --    2.37899   2.37930   2.38491   2.38504   2.38675
 Alpha virt. eigenvalues --    2.38720   2.39081   2.39528   2.40150   2.40305
 Alpha virt. eigenvalues --    2.41451   2.41469   2.43230   2.43342   2.43369
 Alpha virt. eigenvalues --    2.43515   2.43747   2.43900   2.44612   2.44916
 Alpha virt. eigenvalues --    2.45062   2.45132   2.45378   2.45715   2.46558
 Alpha virt. eigenvalues --    2.46637   2.46729   2.47025   2.47431   2.47460
 Alpha virt. eigenvalues --    2.48573   2.48867   2.49631   2.49634   2.49974
 Alpha virt. eigenvalues --    2.50613   2.51024   2.51340   2.51622   2.52503
 Alpha virt. eigenvalues --    2.52555   2.52899   2.53461   2.53527   2.53870
 Alpha virt. eigenvalues --    2.54295   2.55654   2.55770   2.56285   2.56372
 Alpha virt. eigenvalues --    2.57080   2.57143   2.57145   2.57960   2.57993
 Alpha virt. eigenvalues --    2.58316   2.58568   2.58601   2.59170   2.59236
 Alpha virt. eigenvalues --    2.59887   2.59990   2.60511   2.60850   2.61087
 Alpha virt. eigenvalues --    2.61181   2.61581   2.61601   2.62629   2.62655
 Alpha virt. eigenvalues --    2.62805   2.63620   2.63996   2.64133   2.64135
 Alpha virt. eigenvalues --    2.64539   2.64603   2.64621   2.65370   2.65552
 Alpha virt. eigenvalues --    2.65568   2.65879   2.65936   2.66426   2.66822
 Alpha virt. eigenvalues --    2.66833   2.67046   2.67099   2.67323   2.67811
 Alpha virt. eigenvalues --    2.68169   2.68396   2.68431   2.69221   2.69702
 Alpha virt. eigenvalues --    2.69910   2.69964   2.70577   2.71374   2.71508
 Alpha virt. eigenvalues --    2.71642   2.71953   2.72278   2.72642   2.72666
 Alpha virt. eigenvalues --    2.72918   2.73879   2.74276   2.74357   2.74444
 Alpha virt. eigenvalues --    2.74943   2.75577   2.75763   2.76208   2.76847
 Alpha virt. eigenvalues --    2.77155   2.77688   2.77713   2.78633   2.78910
 Alpha virt. eigenvalues --    2.79094   2.79400   2.80049   2.80466   2.80526
 Alpha virt. eigenvalues --    2.80798   2.81166   2.81298   2.81631   2.81974
 Alpha virt. eigenvalues --    2.82066   2.82297   2.82466   2.82502   2.82790
 Alpha virt. eigenvalues --    2.83003   2.83370   2.83765   2.84003   2.84019
 Alpha virt. eigenvalues --    2.84957   2.85055   2.85270   2.85753   2.85823
 Alpha virt. eigenvalues --    2.86295   2.86949   2.87450   2.87851   2.88709
 Alpha virt. eigenvalues --    2.89045   2.89402   2.89641   2.89877   2.90090
 Alpha virt. eigenvalues --    2.90118   2.91285   2.91288   2.91619   2.91858
 Alpha virt. eigenvalues --    2.92037   2.92064   2.92577   2.92813   2.94083
 Alpha virt. eigenvalues --    2.94653   2.94747   2.95025   2.95144   2.95717
 Alpha virt. eigenvalues --    2.95815   2.96129   2.96142   2.96551   2.96619
 Alpha virt. eigenvalues --    2.97003   2.97011   2.97992   2.98007   2.98317
 Alpha virt. eigenvalues --    2.99039   2.99188   2.99378   2.99633   2.99964
 Alpha virt. eigenvalues --    3.01109   3.01215   3.01487   3.02133   3.02237
 Alpha virt. eigenvalues --    3.02697   3.03100   3.03210   3.03445   3.04736
 Alpha virt. eigenvalues --    3.04763   3.04880   3.05536   3.05980   3.06801
 Alpha virt. eigenvalues --    3.07495   3.07852   3.08549   3.08879   3.09487
 Alpha virt. eigenvalues --    3.09606   3.09809   3.09828   3.09870   3.10072
 Alpha virt. eigenvalues --    3.10616   3.10948   3.11079   3.11359   3.11741
 Alpha virt. eigenvalues --    3.12302   3.12620   3.12649   3.12902   3.12912
 Alpha virt. eigenvalues --    3.13221   3.14320   3.14902   3.14950   3.15546
 Alpha virt. eigenvalues --    3.15789   3.16031   3.16243   3.16313   3.16620
 Alpha virt. eigenvalues --    3.16639   3.16903   3.17271   3.17652   3.18062
 Alpha virt. eigenvalues --    3.18635   3.18689   3.18927   3.19013   3.19370
 Alpha virt. eigenvalues --    3.19427   3.20142   3.20291   3.20489   3.21079
 Alpha virt. eigenvalues --    3.21338   3.22136   3.22703   3.22839   3.23131
 Alpha virt. eigenvalues --    3.23152   3.23197   3.23319   3.23912   3.24022
 Alpha virt. eigenvalues --    3.24343   3.24768   3.25240   3.25329   3.25670
 Alpha virt. eigenvalues --    3.26423   3.26723   3.27114   3.27118   3.27458
 Alpha virt. eigenvalues --    3.27463   3.27789   3.27809   3.28204   3.28457
 Alpha virt. eigenvalues --    3.28505   3.29090   3.29293   3.29836   3.29934
 Alpha virt. eigenvalues --    3.30091   3.30694   3.31123   3.31665   3.31984
 Alpha virt. eigenvalues --    3.32144   3.32688   3.32743   3.32773   3.33239
 Alpha virt. eigenvalues --    3.33310   3.33594   3.33737   3.34010   3.34385
 Alpha virt. eigenvalues --    3.34557   3.34878   3.34976   3.35282   3.35385
 Alpha virt. eigenvalues --    3.35840   3.36036   3.36349   3.36595   3.36634
 Alpha virt. eigenvalues --    3.36797   3.37048   3.37953   3.38025   3.38043
 Alpha virt. eigenvalues --    3.38327   3.38492   3.38533   3.38760   3.39401
 Alpha virt. eigenvalues --    3.39515   3.39991   3.40246   3.40578   3.40595
 Alpha virt. eigenvalues --    3.40847   3.41210   3.41461   3.41652   3.41722
 Alpha virt. eigenvalues --    3.41960   3.42201   3.42796   3.43044   3.43261
 Alpha virt. eigenvalues --    3.43467   3.44231   3.44521   3.44731   3.45042
 Alpha virt. eigenvalues --    3.45058   3.45358   3.46048   3.46068   3.46305
 Alpha virt. eigenvalues --    3.46600   3.47052   3.47067   3.47128   3.48203
 Alpha virt. eigenvalues --    3.48534   3.48632   3.48980   3.49016   3.50121
 Alpha virt. eigenvalues --    3.50135   3.50533   3.51077   3.51440   3.52406
 Alpha virt. eigenvalues --    3.52637   3.52999   3.53733   3.54011   3.54988
 Alpha virt. eigenvalues --    3.55383   3.55615   3.55666   3.55832   3.56096
 Alpha virt. eigenvalues --    3.56156   3.56711   3.56935   3.57416   3.57740
 Alpha virt. eigenvalues --    3.58648   3.58743   3.59044   3.59428   3.59964
 Alpha virt. eigenvalues --    3.59984   3.61044   3.61167   3.61511   3.61567
 Alpha virt. eigenvalues --    3.61852   3.61869   3.62400   3.62827   3.62956
 Alpha virt. eigenvalues --    3.63297   3.63416   3.63999   3.64650   3.64969
 Alpha virt. eigenvalues --    3.65086   3.65901   3.66204   3.66691   3.66990
 Alpha virt. eigenvalues --    3.67227   3.67256   3.67676   3.67913   3.68321
 Alpha virt. eigenvalues --    3.68850   3.69163   3.69914   3.70093   3.71310
 Alpha virt. eigenvalues --    3.71363   3.71465   3.71718   3.72677   3.72967
 Alpha virt. eigenvalues --    3.74232   3.74282   3.75422   3.75642   3.76298
 Alpha virt. eigenvalues --    3.76600   3.76742   3.77931   3.78032   3.78062
 Alpha virt. eigenvalues --    3.78830   3.78977   3.79352   3.80281   3.80542
 Alpha virt. eigenvalues --    3.81143   3.81395   3.81478   3.82002   3.82346
 Alpha virt. eigenvalues --    3.82807   3.83501   3.84030   3.84636   3.85434
 Alpha virt. eigenvalues --    3.86545   3.86796   3.86940   3.87323   3.88738
 Alpha virt. eigenvalues --    3.88907   3.89338   3.89991   3.90476   3.90570
 Alpha virt. eigenvalues --    3.91561   3.92294   3.92519   3.92594   3.92602
 Alpha virt. eigenvalues --    3.93584   3.93753   3.94222   3.94947   3.95304
 Alpha virt. eigenvalues --    3.95591   3.95929   3.96388   3.96868   3.96919
 Alpha virt. eigenvalues --    3.97867   3.98320   3.99461   3.99826   4.00638
 Alpha virt. eigenvalues --    4.00878   4.02233   4.02556   4.03291   4.03584
 Alpha virt. eigenvalues --    4.04229   4.04353   4.04956   4.05922   4.06221
 Alpha virt. eigenvalues --    4.06431   4.07379   4.07437   4.08426   4.08598
 Alpha virt. eigenvalues --    4.09096   4.09684   4.10160   4.11158   4.13391
 Alpha virt. eigenvalues --    4.13655   4.14320   4.14507   4.14716   4.15135
 Alpha virt. eigenvalues --    4.17614   4.17627   4.18729   4.18890   4.19991
 Alpha virt. eigenvalues --    4.20335   4.20347   4.20389   4.20610   4.21087
 Alpha virt. eigenvalues --    4.21813   4.22546   4.23299   4.24820   4.25036
 Alpha virt. eigenvalues --    4.25056   4.26059   4.26354   4.26919   4.27152
 Alpha virt. eigenvalues --    4.28418   4.29134   4.29685   4.29759   4.29921
 Alpha virt. eigenvalues --    4.30512   4.30534   4.31494   4.31865   4.32679
 Alpha virt. eigenvalues --    4.33495   4.33664   4.34746   4.35056   4.35782
 Alpha virt. eigenvalues --    4.36112   4.37477   4.37862   4.37895   4.38361
 Alpha virt. eigenvalues --    4.39225   4.40032   4.40175   4.40352   4.40985
 Alpha virt. eigenvalues --    4.41073   4.41964   4.42100   4.42959   4.43546
 Alpha virt. eigenvalues --    4.43572   4.43660   4.44698   4.45288   4.45507
 Alpha virt. eigenvalues --    4.46782   4.46819   4.47703   4.47847   4.48986
 Alpha virt. eigenvalues --    4.49027   4.49052   4.49745   4.49876   4.51410
 Alpha virt. eigenvalues --    4.52595   4.52767   4.52825   4.53329   4.53462
 Alpha virt. eigenvalues --    4.53644   4.53990   4.54899   4.55259   4.55569
 Alpha virt. eigenvalues --    4.56857   4.57301   4.57416   4.58311   4.58985
 Alpha virt. eigenvalues --    4.59402   4.59805   4.60247   4.60712   4.61296
 Alpha virt. eigenvalues --    4.62800   4.62917   4.64105   4.65421   4.66877
 Alpha virt. eigenvalues --    4.67013   4.68673   4.68796   4.69685   4.69745
 Alpha virt. eigenvalues --    4.71028   4.71126   4.72542   4.73475   4.73569
 Alpha virt. eigenvalues --    4.73736   4.76269   4.76944   4.77492   4.78624
 Alpha virt. eigenvalues --    4.78693   4.79403   4.79620   4.79942   4.80448
 Alpha virt. eigenvalues --    4.81920   4.83308   4.85669   4.86174   4.87329
 Alpha virt. eigenvalues --    4.87890   4.88453   4.89192   4.91247   4.91781
 Alpha virt. eigenvalues --    4.92789   4.94764   4.96175   4.96733   4.97438
 Alpha virt. eigenvalues --    4.98362   5.00677   5.03130   5.03620   5.03876
 Alpha virt. eigenvalues --    5.04555   5.05712   5.05737   5.07106   5.08162
 Alpha virt. eigenvalues --    5.08655   5.09340   5.10018   5.11695   5.15036
 Alpha virt. eigenvalues --    5.15554   5.17408   5.17466   5.19206   5.19573
 Alpha virt. eigenvalues --    5.20952   5.23087   5.23606   5.24985   5.25013
 Alpha virt. eigenvalues --    5.25533   5.26833   5.27609   5.28829   5.29479
 Alpha virt. eigenvalues --    5.31087   5.32472   5.36850   5.36852   5.38722
 Alpha virt. eigenvalues --    5.39256   5.40790   5.41117   5.46854   5.48546
 Alpha virt. eigenvalues --    5.58347   5.62244   5.67471   5.67941   5.74655
 Alpha virt. eigenvalues --    5.75178   5.76620   5.77413  22.58110  22.65839
 Alpha virt. eigenvalues --   22.65963  22.67486  22.67706  22.68842  22.68996
 Alpha virt. eigenvalues --   22.69094  22.72082  22.72265  22.76513  22.76582
 Alpha virt. eigenvalues --   22.79330  22.79499  22.79944  22.83197  22.83757
 Alpha virt. eigenvalues --   22.84992  22.86062  22.86553  22.87784  22.94835
 Alpha virt. eigenvalues --   22.96132  22.96810  22.97417  22.97746  23.02420
 Alpha virt. eigenvalues --   23.03857  23.05181  23.05750  23.06368  23.07694
 Alpha virt. eigenvalues --   23.12094  23.12930  23.29538  23.34600  23.39457
 Alpha virt. eigenvalues --   23.41305  23.58187  23.58191
          Condensed to atoms (all electrons):
 Mulliken charges:
               1
     1  C   -0.250611
     2  C   -0.222500
     3  C   -0.214570
     4  C    0.018573
     5  C   -0.105832
     6  C    0.157866
     7  C   -0.180499
     8  C   -0.242906
     9  C    0.052996
    10  C   -0.236031
    11  C   -0.123130
    12  C   -0.272071
    13  C    0.085785
    14  C   -0.204780
    15  C   -0.171189
    16  C   -0.171190
    17  C   -0.204780
    18  C    0.085785
    19  C   -0.272070
    20  C   -0.123131
    21  C   -0.236030
    22  C    0.052994
    23  C   -0.242905
    24  C   -0.180500
    25  C   -0.105832
    26  C    0.157866
    27  C   -0.453238
    28  C   -0.471500
    29  C   -0.471883
    30  C   -0.250611
    31  C   -0.222500
    32  C   -0.214570
    33  C    0.018572
    34  C   -0.453236
    35  C   -0.471500
    36  C   -0.471884
    37  C   -0.435702
    38  C   -0.432358
    39  C   -0.432358
    40  C   -0.435702
    41  H    0.118441
    42  H    0.133861
    43  H    0.130979
    44  H    0.117007
    45  H    0.133738
    46  H    0.146733
    47  H    0.161169
    48  H    0.158102
    49  H    0.148341
    50  H    0.166679
    51  H    0.152067
    52  H    0.153163
    53  H    0.150179
    54  H    0.150179
    55  H    0.153162
    56  H    0.152067
    57  H    0.166680
    58  H    0.148341
    59  H    0.158102
    60  H    0.161170
    61  H    0.143786
    62  H    0.144198
    63  H    0.142246
    64  H    0.143939
    65  H    0.142359
    66  H    0.142949
    67  H    0.163754
    68  H    0.159791
    69  H    0.163215
    70  H    0.133861
    71  H    0.118441
    72  H    0.130979
    73  H    0.117007
    74  H    0.133738
    75  H    0.146733
    76  H    0.144198
    77  H    0.142245
    78  H    0.143786
    79  H    0.143939
    80  H    0.142359
    81  H    0.142949
    82  H    0.163754
    83  H    0.159791
    84  H    0.163215
    85  H    0.157322
    86  H    0.163388
    87  H    0.157630
    88  H    0.157551
    89  H    0.163508
    90  H    0.157485
    91  H    0.157485
    92  H    0.157551
    93  H    0.163508
    94  H    0.163388
    95  H    0.157630
    96  H    0.157322
 Sum of Mulliken charges =  -0.00000
 Mulliken charges with hydrogens summed into heavy atoms:
               1
     1  C    0.001692
     2  C    0.025486
     3  C    0.065901
     4  C    0.018573
     5  C   -0.105832
     6  C    0.157866
     7  C   -0.019330
     8  C   -0.084804
     9  C    0.052996
    10  C   -0.087690
    11  C    0.043549
    12  C   -0.120004
    13  C    0.085785
    14  C   -0.051618
    15  C   -0.021010
    16  C   -0.021011
    17  C   -0.051618
    18  C    0.085785
    19  C   -0.120003
    20  C    0.043549
    21  C   -0.087689
    22  C    0.052994
    23  C   -0.084803
    24  C   -0.019330
    25  C   -0.105832
    26  C    0.157866
    27  C   -0.023007
    28  C   -0.042253
    29  C    0.014876
    30  C    0.001692
    31  C    0.025487
    32  C    0.065901
    33  C    0.018572
    34  C   -0.023007
    35  C   -0.042253
    36  C    0.014876
    37  C    0.042638
    38  C    0.046186
    39  C    0.046186
    40  C    0.042638
 Electronic spatial extent (au):  <R**2>=         104475.2623
 Charge=             -0.0000 electrons
 Dipole moment (field-independent basis, Debye):
    X=              0.0000    Y=             -0.0000    Z=             -0.5380  Tot=              0.5380
 Quadrupole moment (field-independent basis, Debye-Ang):
   XX=           -145.8423   YY=           -223.0350   ZZ=           -261.6138
   XY=            -16.2858   XZ=             -0.0002   YZ=              0.0000
 Traceless Quadrupole moment (field-independent basis, Debye-Ang):
   XX=             64.3214   YY=            -12.8713   ZZ=            -51.4501
   XY=            -16.2858   XZ=             -0.0002   YZ=              0.0000
 Octapole moment (field-independent basis, Debye-Ang**2):
  XXX=              0.0062  YYY=              0.0002  ZZZ=             -7.2725  XYY=              0.0002
  XXY=             -0.0006  XXZ=            -96.2873  XZZ=              0.0001  YZZ=             -0.0000
  YYZ=              0.4859  XYZ=             13.0138
 Hexadecapole moment (field-independent basis, Debye-Ang**3):
 XXXX=        -112969.1743 YYYY=          -3968.2072 ZZZZ=           -836.7989 XXXY=          -2117.4812
 XXXZ=             -0.0364 YYYX=           -231.5914 YYYZ=             -0.0001 ZZZX=             -0.0017
 ZZZY=             -0.0000 XXYY=         -22590.7988 XXZZ=         -24216.3414 YYZZ=           -828.8370
 XXYZ=              0.0040 YYXZ=              0.0000 ZZXY=            -29.3208
 N-N= 3.637152187714D+03 E-N=-1.088139902004D+04  KE= 1.546788898026D+03

 Test job not archived.
 1\1\GINC-CN05\SP\RPBEPBE TD-FC\def2TZVP\C40H56\2100011873\06-Nov-2023\
 0\\# td=(nstates=150) PBEPBE/def2TZVP IOp(3/76=1000003750) IOp(3/77=06
 25006250) IOp(3/78=1000010000) scrf(smd, solvent=ethanol)\\B-1\\0,1\C,
 0,-13.193247,-1.96518,0.357514\C,0,-14.150234,-1.366297,-0.666837\C,0,
 -14.19793,0.145886,-0.469985\C,0,-12.839886,0.781119,-0.265942\C,0,-11
 .699193,0.069117,-0.020535\C,0,-11.734254,-1.463294,0.19794\C,0,-10.43
 464,0.808638,0.027915\C,0,-9.147698,0.368486,0.051934\C,0,-7.970978,1.
 218813,0.064023\C,0,-6.738479,0.618773,0.069992\C,0,-5.445845,1.238015
 ,0.078209\C,0,-4.280328,0.525977,0.08121\C,0,-2.942601,1.063627,0.0860
 09\C,0,-1.885522,0.185039,0.0869\C,0,-0.488362,0.47987,0.088382\C,0,0.
 488364,-0.479879,0.088381\C,0,1.885523,-0.185049,0.086901\C,0,2.942603
 ,-1.063636,0.08601\C,0,4.28033,-0.525984,0.08121\C,0,5.445847,-1.23802
 2,0.078205\C,0,6.73848,-0.618778,0.069986\C,0,7.97098,-1.218816,0.0640
 16\C,0,9.147699,-0.368486,0.051926\C,0,10.434641,-0.808636,0.027911\C,
 0,11.699193,-0.069112,-0.020539\C,0,11.734248,1.463299,0.197935\C,0,-1
 1.0146,-1.853868,1.513234\C,0,-11.087577,-2.209256,-0.996377\C,0,-12.8
 78927,2.293643,-0.398885\C,0,13.193238,1.965187,0.357525\C,0,14.150237
 ,1.366308,-0.666817\C,0,14.197934,-0.145875,-0.469969\C,0,12.839889,-0
 .781111,-0.265939\C,0,11.014576,1.85387,1.51322\C,0,11.087582,2.209257
 ,-0.996389\C,0,12.878932,-2.293635,-0.398883\C,0,8.156563,-2.71718,0.0
 68498\C,0,2.769507,-2.564242,0.088788\C,0,-2.769504,2.564233,0.08879\C
 ,0,-8.156557,2.717177,0.068503\H,0,-13.55224,-1.704444,1.363722\H,0,-1
 3.191791,-3.061587,0.302962\H,0,-15.153148,-1.798268,-0.563053\H,0,-13
 .813091,-1.597755,-1.685187\H,0,-14.836732,0.392637,0.395545\H,0,-14.6
 8517,0.631298,-1.328645\H,0,-10.553209,1.886254,-0.000126\H,0,-8.93157
 1,-0.694424,0.048253\H,0,-6.727188,-0.472294,0.066595\H,0,-5.39419,2.3
 23329,0.080545\H,0,-4.354073,-0.562407,0.078511\H,0,-2.136434,-0.87672
 9,0.085263\H,0,-0.172471,1.5217,0.088524\H,0,0.172472,-1.521709,0.0885
 21\H,0,2.136435,0.87672,0.085267\H,0,4.354074,0.5624,0.078514\H,0,5.39
 4193,-2.323335,0.080538\H,0,6.727188,0.472289,0.066588\H,0,8.931568,0.
 694423,0.04824\H,0,10.553213,-1.886252,-0.000123\H,0,-11.41656,-1.2805
 84,2.356412\H,0,-11.183965,-2.918133,1.720013\H,0,-9.93616,-1.690871,1
 .488587\H,0,-10.062275,-1.88498,-1.187807\H,0,-11.067226,-3.288779,-0.
 800274\H,0,-11.653135,-2.045583,-1.919919\H,0,-13.913764,2.64896,-0.35
 0635\H,0,-12.32451,2.809583,0.392139\H,0,-12.468777,2.633235,-1.360075
 \H,0,13.19178,3.061594,0.302976\H,0,13.552222,1.70445,1.363737\H,0,15.
 153149,1.798281,-0.563022\H,0,13.813104,1.597768,-1.68517\H,0,14.83672
 7,-0.392627,0.395567\H,0,14.685183,-0.631285,-1.328625\H,0,11.183932,2
 .918136,1.719999\H,0,9.936137,1.690867,1.488558\H,0,11.416527,1.280589
 ,2.356403\H,0,10.062283,1.884978,-1.18783\H,0,11.067226,3.288781,-0.80
 0288\H,0,11.65315,2.045585,-1.919926\H,0,13.913771,-2.648951,-0.350639
 \H,0,12.324521,-2.809577,0.392144\H,0,12.468777,-2.633229,-1.360071\H,
 0,8.744087,-3.036457,0.93873\H,0,7.209146,-3.257946,0.093047\H,0,8.704
 221,-3.047232,-0.823677\H,0,3.248036,-3.011075,0.969534\H,0,1.72147,-2
 .868026,0.092705\H,0,3.242385,-3.013831,-0.793611\H,0,-3.242396,3.0138
 25,-0.7936\H,0,-3.248019,3.011063,0.969546\H,0,-1.721466,2.868016,0.09
 2692\H,0,-7.20914,3.257941,0.093061\H,0,-8.704208,3.04723,-0.823677\H,
 0,-8.744089,3.036455,0.93873\\Version=ES64L-G16RevC.02\State=1-A\HF=-1
 556.681317\RMSD=5.204e-09\PG=C01 [X(C40H56)]\\@


 NOT WHAT WE DID SHALL BE THE TEST
 WHEN ACT AND WILL ARE DONE,
 BUT WHAT OUR LORD INFERS WE WOULD-
 HAD WE DIVINER BEEN.
           EMILY DICKINSON  POEMS NO. CLXXV
 Job cpu time:       8 days 22 hours 16 minutes 47.1 seconds.
 Elapsed time:       0 days  6 hours 18 minutes  4.8 seconds.
 File lengths (MBytes):  RWF=  94400 Int=      0 D2E=      0 Chk=  10128 Scr=     32
 Normal termination of Gaussian 16 at Mon Nov  6 21:07:57 2023.
