 Entering Gaussian System, Link 0=g16
 Initial command:
 /nfs-share/home/2100011873/Gaussian16_AVX2/g16/l1.exe "/nfs-share/home/2100011873/GaussTmp/Gau-63088.inp" -scrdir="/nfs-share/home/2100011873/GaussTmp/"
 Entering Link 1 = /nfs-share/home/2100011873/Gaussian16_AVX2/g16/l1.exe PID=     63089.
  
 Copyright (c) 1988-2021, Gaussian, Inc.  All Rights Reserved.
  
 This is part of the Gaussian(R) 16 program.  It is based on
 the Gaussian(R) 09 system (copyright 2009, Gaussian, Inc.),
 the Gaussian(R) 03 system (copyright 2003, Gaussian, Inc.),
 the Gaussian(R) 98 system (copyright 1998, Gaussian, Inc.),
 the Gaussian(R) 94 system (copyright 1995, Gaussian, Inc.),
 the Gaussian 92(TM) system (copyright 1992, Gaussian, Inc.),
 the Gaussian 90(TM) system (copyright 1990, Gaussian, Inc.),
 the Gaussian 88(TM) system (copyright 1988, Gaussian, Inc.),
 the Gaussian 86(TM) system (copyright 1986, Carnegie Mellon
 University), and the Gaussian 82(TM) system (copyright 1983,
 Carnegie Mellon University). Gaussian is a federally registered
 trademark of Gaussian, Inc.
  
 This software contains proprietary and confidential information,
 including trade secrets, belonging to Gaussian, Inc.
  
 This software is provided under written license and may be
 used, copied, transmitted, or stored only in accord with that
 written license.
  
 The following legend is applicable only to US Government
 contracts under FAR:
  
                    RESTRICTED RIGHTS LEGEND
  
 Use, reproduction and disclosure by the US Government is
 subject to restrictions as set forth in subparagraphs (a)
 and (c) of the Commercial Computer Software - Restricted
 Rights clause in FAR 52.227-19.
  
 Gaussian, Inc.
 340 Quinnipiac St., Bldg. 40, Wallingford CT 06492
  
  
 ---------------------------------------------------------------
 Warning -- This program may not be used in any manner that
 competes with the business of Gaussian, Inc. or will provide
 assistance to any competitor of Gaussian, Inc.  The licensee
 of this program is prohibited from giving any competitor of
 Gaussian, Inc. access to this program.  By using this program,
 the user acknowledges that Gaussian, Inc. is engaged in the
 business of creating and licensing software in the field of
 computational chemistry and represents and warrants to the
 licensee that it is not a competitor of Gaussian, Inc. and that
 it will not use this program in any manner prohibited above.
 ---------------------------------------------------------------
  

 Cite this work as:
 Gaussian 16, Revision C.02,
 M. J. Frisch, G. W. Trucks, H. B. Schlegel, G. E. Scuseria, 
 M. A. Robb, J. R. Cheeseman, G. Scalmani, V. Barone, 
 G. A. Petersson, H. Nakatsuji, X. Li, M. Caricato, A. V. Marenich, 
 J. Bloino, B. G. Janesko, R. Gomperts, B. Mennucci, H. P. Hratchian, 
 J. V. Ortiz, A. F. Izmaylov, J. L. Sonnenberg, D. Williams-Young, 
 F. Ding, F. Lipparini, F. Egidi, J. Goings, B. Peng, A. Petrone, 
 T. Henderson, D. Ranasinghe, V. G. Zakrzewski, J. Gao, N. Rega, 
 G. Zheng, W. Liang, M. Hada, M. Ehara, K. Toyota, R. Fukuda, 
 J. Hasegawa, M. Ishida, T. Nakajima, Y. Honda, O. Kitao, H. Nakai, 
 T. Vreven, K. Throssell, J. A. Montgomery, Jr., J. E. Peralta, 
 F. Ogliaro, M. J. Bearpark, J. J. Heyd, E. N. Brothers, K. N. Kudin, 
 V. N. Staroverov, T. A. Keith, R. Kobayashi, J. Normand, 
 K. Raghavachari, A. P. Rendell, J. C. Burant, S. S. Iyengar, 
 J. Tomasi, M. Cossi, J. M. Millam, M. Klene, C. Adamo, R. Cammi, 
 J. W. Ochterski, R. L. Martin, K. Morokuma, O. Farkas, 
 J. B. Foresman, and D. J. Fox, Gaussian, Inc., Wallingford CT, 2019.
 
 ******************************************
 Gaussian 16:  ES64L-G16RevC.02  7-Dec-2021
                 5-Nov-2023 
 ******************************************
 %nprocshared=36
 Will use up to   36 processors via shared memory.
 %mem=128GB
 ----------------------------------------------------------------------
 # td=(nstates=150) PBEPBE/def2TZVP IOp(3/76=1000003750) IOp(3/77=06250
 06250) IOp(3/78=1000010000) scrf(smd, solvent=ethanol)
 ----------------------------------------------------------------------
 1/38=1,172=1/1;
 2/12=2,17=6,18=5,40=1/2;
 3/5=44,7=101,11=9,25=1,30=1,70=32201,72=4,74=1009,76=1000003750,77=625006250,78=1000010000/1,2,3,8;
 4//1;
 5/5=2,38=5,53=4/2;
 8/6=1,10=1,108=150/1;
 9/41=150,42=1,70=2/14;
 6/7=2,8=2,9=2,10=2/1;
 99/5=1,9=1/99;
 ---
 A-1
 ---
 Symbolic Z-matrix:
 Charge =  1 Multiplicity = 1
 C                    -1.25921   0.2167   -0.03937 
 C                     0.        0.82894  -0.00012 
 C                     1.25921   0.21668   0.03925 
 N                     2.43346   0.90485   0.146 
 S                    -1.55756  -1.51215   0.05388 
 C                    -3.29767  -1.25882  -0.02728 
 C                    -3.5899    0.10887  -0.1183 
 N                    -2.43347   0.90486  -0.14611 
 S                     1.55755  -1.51217  -0.05392 
 C                     3.29766  -1.25885   0.0273 
 C                     3.5899    0.10884   0.11825 
 C                    -4.30157  -2.22442  -0.00362 
 C                    -5.62465  -1.79213  -0.06698 
 C                    -5.92564  -0.42569  -0.14901 
 C                    -4.92039   0.53827  -0.17427 
 C                     4.30156  -2.22445   0.00372 
 C                     5.62464  -1.79215   0.06707 
 C                     5.92564  -0.42571   0.14902 
 C                     4.92038   0.53826   0.17421 
 C                    -2.51035   2.37353  -0.25723 
 C                    -2.56643   3.07379   1.10152 
 C                     2.51034   2.3735    0.2573 
 C                     2.56651   3.07393  -1.10136 
 H                     0.00001   1.90904  -0.00021 
 H                    -4.06058  -3.28031   0.06397 
 H                    -6.42724  -2.52213  -0.04909 
 H                    -6.96206  -0.10651  -0.19134 
 H                    -5.17675   1.59021  -0.22813 
 H                     4.06057  -3.28035  -0.06382 
 H                     6.42723  -2.52216   0.04923 
 H                     6.96205  -0.10653   0.19134 
 H                     5.17673   1.5902    0.22802 
 H                    -1.65749   2.70849  -0.85213 
 H                    -3.39812   2.59717  -0.85222 
 H                    -3.44119   2.75206   1.67457 
 H                    -1.67384   2.86336   1.69908 
 H                    -2.63423   4.15636   0.9543 
 H                     1.65744   2.70838   0.85218 
 H                     3.39807   2.59706   0.85237 
 H                     3.44133   2.75234  -1.67437 
 H                     1.67399   2.86351  -1.69903 
 H                     2.63421   4.15649  -0.95399 
 
                          Input orientation:                          
 ---------------------------------------------------------------------
 Center     Atomic      Atomic             Coordinates (Angstroms)
 Number     Number       Type             X           Y           Z
 ---------------------------------------------------------------------
      1          6           0       -1.259214    0.216698   -0.039367
      2          6           0        0.000003    0.828935   -0.000122
      3          6           0        1.259209    0.216684    0.039249
      4          7           0        2.433464    0.904848    0.145998
      5         16           0       -1.557561   -1.512152    0.053882
      6          6           0       -3.297665   -1.258824   -0.027283
      7          6           0       -3.589904    0.108866   -0.118299
      8          7           0       -2.433474    0.904863   -0.146106
      9         16           0        1.557549   -1.512171   -0.053923
     10          6           0        3.297657   -1.258850    0.027304
     11          6           0        3.589900    0.108842    0.118251
     12          6           0       -4.301571   -2.224422   -0.003624
     13          6           0       -5.624645   -1.792125   -0.066975
     14          6           0       -5.925643   -0.425687   -0.149009
     15          6           0       -4.920394    0.538274   -0.174272
     16          6           0        4.301563   -2.224450    0.003718
     17          6           0        5.624635   -1.792149    0.067066
     18          6           0        5.925635   -0.425707    0.149021
     19          6           0        4.920384    0.538258    0.174213
     20          6           0       -2.510348    2.373529   -0.257226
     21          6           0       -2.566433    3.073786    1.101522
     22          6           0        2.510339    2.373497    0.257299
     23          6           0        2.566508    3.073929   -1.101357
     24          1           0        0.000014    1.909040   -0.000214
     25          1           0       -4.060576   -3.280313    0.063971
     26          1           0       -6.427238   -2.522132   -0.049094
     27          1           0       -6.962056   -0.106514   -0.191342
     28          1           0       -5.176748    1.590213   -0.228130
     29          1           0        4.060566   -3.280345   -0.063815
     30          1           0        6.427230   -2.522156    0.049231
     31          1           0        6.962048   -0.106532    0.191339
     32          1           0        5.176733    1.590201    0.228019
     33          1           0       -1.657488    2.708489   -0.852128
     34          1           0       -3.398115    2.597174   -0.852215
     35          1           0       -3.441185    2.752064    1.674572
     36          1           0       -1.673838    2.863356    1.699082
     37          1           0       -2.634230    4.156364    0.954302
     38          1           0        1.657436    2.708379    0.852183
     39          1           0        3.398074    2.597059    0.852370
     40          1           0        3.441334    2.752344   -1.674368
     41          1           0        1.673988    2.863510   -1.699033
     42          1           0        2.634214    4.156493   -0.953990
 ---------------------------------------------------------------------
                    Distance matrix (angstroms):
                    1          2          3          4          5
     1  C    0.000000
     2  C    1.400715   0.000000
     3  C    2.519650   1.400715   0.000000
     4  N    3.760822   2.439026   1.365225   0.000000
     5  S    1.756880   2.812403   3.305039   4.666761   0.000000
     6  C    2.516465   3.903087   4.790266   6.128405   1.760320
     7  C    2.334518   3.663318   4.852870   6.081480   2.605334
     8  N    1.365229   2.439034   3.760832   4.875696   2.578600
     9  S    3.305050   2.812405   1.756880   2.578600   3.116975
    10  C    4.790278   3.903091   2.516468   2.332918   4.861894
    11  C    4.852874   3.663319   2.334522   1.404186   5.397047
    12  C    3.900805   5.275087   6.073147   7.428015   2.835529
    13  C    4.805530   6.205730   7.171753   8.500126   4.078500
    14  C    4.711713   6.058839   7.215967   8.469476   4.505742
    15  C    3.677751   4.932050   6.191648   7.369951   3.945244
    16  C    6.073162   5.275092   3.900810   3.647265   5.902476
    17  C    7.171762   6.205730   4.805531   4.178947   7.187664
    18  C    7.215970   6.058835   4.711714   3.737064   7.562251
    19  C    6.191643   4.932042   3.677748   2.513952   6.795766
    20  C    2.502942   2.958671   4.353095   5.173093   4.012868
    21  C    3.342664   3.583234   4.891523   5.533199   4.811050
    22  C    4.353082   2.958669   2.502941   1.474865   5.629161
    23  C    4.891599   3.583248   3.342733   2.505695   6.274923
    24  H    2.109789   1.080105   2.109786   2.636562   3.759458
    25  H    4.481896   5.777398   6.366295   7.726245   3.064568
    26  H    5.848911   7.248550   8.160293   9.502331   4.974376
    27  H    5.714015   7.027225   8.230846   9.455816   5.589680
    28  H    4.155628   5.237393   6.586320   7.650165   4.775219
    29  H    6.366315   5.777405   4.481901   4.495256   5.890985
    30  H    8.160306   7.248551   5.848913   5.263448   8.048417
    31  H    8.230848   7.027220   5.714015   4.640368   8.635879
    32  H    6.586305   5.237376   4.155620   2.828774   7.416578
    33  H    2.651080   2.646869   3.938371   4.580968   4.317945
    34  H    3.301861   3.924275   5.305856   6.153675   4.592952
    35  H    3.758546   4.283083   5.585350   6.345096   4.935404
    36  H    3.193574   3.134949   4.285170   4.808092   4.676032
    37  H    4.289407   4.349930   5.614024   6.075132   5.839696
    38  H    3.938297   2.646851   2.651036   2.086538   5.365293
    39  H    5.305812   3.924270   3.301832   2.071958   6.487027
    40  H    5.585506   4.283148   3.758687   2.782584   6.794242
    41  H    4.285298   3.134967   3.193643   2.795943   5.715071
    42  H    5.614027   4.349894   4.289436   3.438527   7.121820
                    6          7          8          9         10
     6  C    0.000000
     7  C    1.401522   0.000000
     8  N    2.332914   1.404178   0.000000
     9  S    4.861892   5.397053   4.666778   0.000000
    10  C    6.595548   7.023556   6.128425   1.760325   0.000000
    11  C    7.023549   7.183700   6.081494   2.605336   1.401520
    12  C    1.393114   2.442100   3.647261   5.902467   7.660389
    13  C    2.387639   2.785062   4.178945   7.187660   8.938722
    14  C    2.759566   2.396324   3.737060   7.562252   9.262533
    15  C    2.425782   1.399188   2.513951   6.795775   8.414669
    16  C    7.660396   8.230097   7.428039   2.835538   1.393114
    17  C    8.938723   9.410417   8.500143   4.078506   2.387638
    18  C    9.262528   9.534291   8.469488   4.505748   2.759567
    19  C    8.414656   8.526133   7.369955   3.945246   2.425783
    20  C    3.723806   2.512656   1.474868   5.629190   6.856242
    21  C    4.536564   3.365443   2.505690   6.274813   7.369751
    22  C    6.856213   6.517867   5.173095   4.012865   3.723803
    23  C    7.369865   6.903580   5.533279   4.811178   4.536676
    24  H    4.572831   4.017721   2.636573   3.759453   4.572826
    25  H    2.162586   3.426556   4.495252   5.890972   7.630940
    26  H    3.375004   3.870065   5.263445   8.048408   9.806901
    27  H    3.844801   3.379813   4.640365   8.635880  10.326538
    28  H    3.418816   2.173597   2.828778   7.416596   8.944157
    29  H    7.630953   8.367760   7.726273   3.064577   2.162585
    30  H    9.806908  10.358249   9.502352   4.974385   3.375004
    31  H   10.326533  10.558691   9.455825   5.589685   3.844802
    32  H    8.944135   8.897652   7.650157   4.775217   3.418816
    33  H    4.371513   3.321261   2.086549   5.365404   6.408326
    34  H    3.944531   2.601364   2.071965   6.487110   7.776621
    35  H    4.359373   3.197343   2.782535   6.794022   8.013296
    36  H    4.754947   3.815940   2.795972   5.714904   6.671071
    37  H    5.543277   4.294884   3.438526   7.121785   8.085243
    38  H    6.408212   5.935813   4.580916   4.317875   4.371459
    39  H    7.776538   7.480985   6.153652   4.592893   3.944471
    40  H    8.013518   7.671221   6.345245   4.935643   4.359588
    41  H    6.671261   6.147792   4.808235   4.676166   4.755039
    42  H    8.085273   7.471366   6.075133   5.839784   5.543378
                   11         12         13         14         15
    11  C    0.000000
    12  C    8.230084   0.000000
    13  C    9.410410   1.393348   0.000000
    14  C    9.534291   2.427796   1.401600   0.000000
    15  C    8.526141   2.836292   2.436851   1.392977   0.000000
    16  C    2.442096   8.603137   9.935870  10.385308   9.628542
    17  C    2.785055   9.935865  11.250079  11.632834  10.802164
    18  C    2.396320  10.385298  11.632829  11.855025  10.893582
    19  C    1.399185   9.628524  10.802152  10.893574   9.846946
    20  C    6.517884   4.941047   5.204586   4.417189   3.030407
    21  C    6.903488   5.683578   5.864737   5.009434   3.687493
    22  C    2.512658   8.222594   9.145246   8.897545   7.666165
    23  C    3.365489   8.743458   9.583497   9.234225   7.958815
    24  H    4.017714   5.965665   6.733489   6.370754   5.110745
    25  H    8.367742   1.085151   2.162906   3.416537   3.921435
    26  H   10.358237   2.146895   1.085074   2.157930   3.413551
    27  H   10.558693   3.405724   2.155324   1.085272   2.141127
    28  H    8.897671   3.920176   3.415669   2.151966   1.084064
    29  H    3.426553   8.428756   9.798884  10.386563   9.759697
    30  H    3.870059  10.733062  12.074524  12.531079  11.755201
    31  H    3.379809  11.462660  12.701685  12.896134  11.905540
    32  H    2.173594  10.219748  11.322408  11.290204  10.159742
    33  H    5.935898   5.660808   6.050647   5.341777   3.976918
    34  H    7.481040   4.978366   4.983973   4.002572   2.648775
    35  H    7.671044   5.321844   5.333867   4.426746   3.241473
    36  H    6.147627   5.974083   6.356205   5.684284   4.410849
    37  H    7.471359   6.664239   6.735734   5.748555   4.426150
    38  H    3.321245   7.782975   8.609767   8.266066   7.002201
    39  H    2.601337   9.124908  10.075693   9.852485   8.630730
    40  H    3.197445   9.354794  10.267808  10.008339   8.779003
    41  H    3.815945   8.029245   8.809574   8.424713   7.156640
    42  H    4.294941   9.472296  10.216732   9.742460   8.412584
                   16         17         18         19         20
    16  C    0.000000
    17  C    1.393347   0.000000
    18  C    2.427797   1.401600   0.000000
    19  C    2.836294   2.436852   1.392980   0.000000
    20  C    8.222629   9.145271   8.897560   7.666168   0.000000
    21  C    8.743332   9.583372   9.234118   7.958721   1.529608
    22  C    4.941043   5.204578   4.417184   3.030400   5.046983
    23  C    5.683698   5.864816   5.009454   3.687470   5.193995
    24  H    5.965658   6.733475   6.370738   5.110725   2.565877
    25  H    8.428751   9.798875  10.386550   9.759676   5.871312
    26  H   10.733060  12.074519  12.531070  11.755185   6.273184
    27  H   11.462670  12.701690  12.896135  11.905534   5.096338
    28  H   10.219774  11.322429  11.290221  10.159752   2.779230
    29  H    1.085152   2.162908   3.416539   3.921438   8.670675
    30  H    2.146896   1.085075   2.157928   3.413552  10.195192
    31  H    3.405724   2.155324   1.085272   2.141130   9.801949
    32  H    3.920178   3.415672   2.151971   1.084064   7.742111
    33  H    7.783100   8.609877   8.266150   7.002262   1.092464
    34  H    9.125005  10.075775   9.852543   8.630766   1.091860
    35  H    9.354549  10.267572  10.008139   8.778830   2.177519
    36  H    8.029038   8.809365   8.424525   7.156470   2.183305
    37  H    9.472255  10.216694   9.742440   8.412575   2.159085
    38  H    5.660751   6.050606   5.341765   3.976921   4.325891
    39  H    4.978298   4.983916   4.002547   2.648771   6.015864
    40  H    5.322072   5.334024   4.426794   3.241453   6.129789
    41  H    5.974182   6.356247   5.684255   4.410775   4.452814
    42  H    6.664360   6.735838   5.748621   4.426177   5.489167
                   21         22         23         24         25
    21  C    0.000000
    22  C    5.193913   0.000000
    23  C    5.585674   1.529610   0.000000
    24  H    3.026071   2.565885   3.025950   0.000000
    25  H    6.609353   8.670632   9.254870   6.589529   0.000000
    26  H    6.895218  10.195163  10.644746   7.806872   2.487712
    27  H    5.577392   9.801939  10.086470   7.250476   4.307757
    28  H    3.283703   7.742124   7.932336   5.191576   5.005316
    29  H    9.254734   5.871307   6.609501   6.589525   8.122147
    30  H   10.644616   6.273177   6.895302   7.806859  10.515184
    31  H   10.086367   5.096333   5.577380   7.250458  11.471153
    32  H    7.932254   2.779221   3.283590   5.191548  10.443979
    33  H    2.185491   4.325948   4.247094   2.027853   6.517654
    34  H    2.176222   6.015886   5.988831   3.570254   5.985241
    35  H    1.094113   6.129650   6.625840   3.918858   6.274333
    36  H    1.094570   4.452644   5.085994   2.569067   6.790786
    37  H    1.094644   5.489173   5.696058   3.591769   7.624390
    38  H    4.246971   1.092463   2.185488   2.027948   8.317534
    39  H    5.988713   1.091862   2.176225   3.570306   9.528722
    40  H    6.625870   2.177525   1.094111   3.918754   9.782302
    41  H    5.086108   2.183307   1.094571   2.568888   8.587198
    42  H    5.695973   2.159083   1.094644   3.591621  10.057959
                   26         27         28         29         30
    26  H    0.000000
    27  H    2.478200   0.000000
    28  H    4.301995   2.463242   0.000000
    29  H   10.515186  11.471167  10.444008   0.000000
    30  H   12.854844  13.607578  12.314252   2.487716   0.000000
    31  H   13.607568  13.929362  12.263982   4.307759   2.478198
    32  H   12.314228  12.263968  10.363525   5.005319   4.301998
    33  H    7.124239   6.041467   3.745011   8.317675   9.671337
    34  H    6.002323   4.521986   2.137051   9.528837  11.115644
    35  H    6.301165   4.904043   2.825306   9.782035  11.306845
    36  H    7.392862   6.352880   4.195881   8.586982   9.866765
    37  H    7.745710   6.181805   3.801010  10.057907  11.293000
    38  H    9.671220   9.127333   7.008812   6.517584   7.124196
    39  H   11.115553  10.757831   8.701080   5.985162   6.002265
    40  H   11.307092  10.890499   8.815526   6.274605   6.301327
    41  H    9.866980   9.256102   7.121617   6.790924   7.392911
    42  H   11.293041  10.528213   8.253714   7.624530   7.745823
                   31         32         33         34         35
    31  H    0.000000
    32  H    2.463249   0.000000
    33  H    9.127407   7.008842   0.000000
    34  H   10.757881   8.701087   1.744183   0.000000
    35  H   10.890308   8.815382   3.093168   2.531896   0.000000
    36  H    9.255920   7.121466   2.555958   3.090809   1.771017
    37  H   10.528198   8.253716   2.512679   2.505613   1.772575
    38  H    6.041469   3.745044   3.727385   5.336285   5.164704
    39  H    4.521977   2.137102   5.336332   7.006696   6.890247
    40  H    4.904025   2.825113   5.164880   6.890434   7.654049
    41  H    6.352813   4.195720   3.440932   5.149200   6.128509
    42  H    6.181853   3.800974   4.530541   6.231439   6.766996
                   36         37         38         39         40
    36  H    0.000000
    37  H    1.774520   0.000000
    38  H    3.440733   4.530506   0.000000
    39  H    5.148993   6.231413   1.744194   0.000000
    40  H    6.128415   6.767101   3.093167   2.531875   0.000000
    41  H    4.770233   5.222298   2.555982   3.090813   1.771010
    42  H    5.222098   5.603399   2.512646   2.505644   1.772575
                   41         42
    41  H    0.000000
    42  H    1.774522   0.000000
 Stoichiometry    C19H19N2S2(1+)
 Framework group  C1[X(C19H19N2S2)]
 Deg. of freedom   120
 Full point group                 C1      NOp   1
 Largest Abelian subgroup         C1      NOp   1
 Largest concise Abelian subgroup C1      NOp   1
                         Standard orientation:                         
 ---------------------------------------------------------------------
 Center     Atomic      Atomic             Coordinates (Angstroms)
 Number     Number       Type             X           Y           Z
 ---------------------------------------------------------------------
      1          6           0       -1.259214    0.216698   -0.039367
      2          6           0        0.000003    0.828935   -0.000122
      3          6           0        1.259209    0.216684    0.039249
      4          7           0        2.433464    0.904848    0.145998
      5         16           0       -1.557561   -1.512152    0.053882
      6          6           0       -3.297665   -1.258824   -0.027283
      7          6           0       -3.589904    0.108866   -0.118299
      8          7           0       -2.433474    0.904863   -0.146106
      9         16           0        1.557549   -1.512171   -0.053923
     10          6           0        3.297657   -1.258850    0.027304
     11          6           0        3.589900    0.108842    0.118251
     12          6           0       -4.301571   -2.224422   -0.003624
     13          6           0       -5.624645   -1.792125   -0.066975
     14          6           0       -5.925643   -0.425687   -0.149009
     15          6           0       -4.920394    0.538274   -0.174272
     16          6           0        4.301563   -2.224450    0.003718
     17          6           0        5.624635   -1.792149    0.067066
     18          6           0        5.925635   -0.425707    0.149021
     19          6           0        4.920384    0.538258    0.174213
     20          6           0       -2.510348    2.373529   -0.257226
     21          6           0       -2.566433    3.073786    1.101522
     22          6           0        2.510339    2.373497    0.257299
     23          6           0        2.566508    3.073929   -1.101357
     24          1           0        0.000014    1.909040   -0.000214
     25          1           0       -4.060576   -3.280313    0.063971
     26          1           0       -6.427238   -2.522132   -0.049094
     27          1           0       -6.962056   -0.106514   -0.191342
     28          1           0       -5.176748    1.590213   -0.228130
     29          1           0        4.060566   -3.280345   -0.063815
     30          1           0        6.427230   -2.522156    0.049231
     31          1           0        6.962048   -0.106532    0.191339
     32          1           0        5.176733    1.590201    0.228019
     33          1           0       -1.657488    2.708489   -0.852128
     34          1           0       -3.398115    2.597174   -0.852215
     35          1           0       -3.441185    2.752064    1.674572
     36          1           0       -1.673838    2.863356    1.699082
     37          1           0       -2.634230    4.156364    0.954302
     38          1           0        1.657436    2.708379    0.852183
     39          1           0        3.398074    2.597059    0.852370
     40          1           0        3.441334    2.752344   -1.674368
     41          1           0        1.673988    2.863510   -1.699033
     42          1           0        2.634214    4.156493   -0.953990
 ---------------------------------------------------------------------
 Rotational constants (GHZ):           0.5197631           0.1187459           0.0985340
 Standard basis: def2TZVP (5D, 7F)
 There are   954 symmetry adapted cartesian basis functions of A   symmetry.
 There are   839 symmetry adapted basis functions of A   symmetry.
   839 basis functions,  1361 primitive gaussians,   954 cartesian basis functions
    89 alpha electrons       89 beta electrons
       nuclear repulsion energy      2127.8579715027 Hartrees.
 NAtoms=   42 NActive=   42 NUniq=   42 SFac= 1.00D+00 NAtFMM=   60 NAOKFM=F Big=F
 Integral buffers will be    131072 words long.
 Regular integral format.
 Two-electron integral symmetry is turned on.
 ------------------------------------------------------------------------------
 Polarizable Continuum Model (PCM)
 =================================
 Model                : PCM.
 Atomic radii         : SMD-Coulomb.
 Polarization charges : Total charges.
 Charge compensation  : None.
 Solution method      : On-the-fly selection.
 Cavity type          : VdW (van der Waals Surface) (Alpha=1.000).
 Cavity algorithm     : GePol (No added spheres)
                        Default sphere list used, NSphG=   42.
                        Lebedev-Laikov grids with approx.  5.0 points / Ang**2.
                        Smoothing algorithm: York/Karplus (Gamma=1.0000).
                        Polarization charges: spherical gaussians, with
                                              point-specific exponents (IZeta= 3).
                        Self-potential: point-specific (ISelfS= 7).
                        Self-field    : sphere-specific E.n sum rule (ISelfD= 2).
 Solvent              : Ethanol, Eps=  24.852000 Eps(inf)=   1.852593
 ------------------------------------------------------------------------------
 ------------------------------------------------------------------------------
 Atomic radii for non-electrostatic terms: SMD-CDS.
 ------------------------------------------------------------------------------
 Nuclear repulsion after PCM non-electrostatic terms =     2127.8526197948 Hartrees.
 One-electron integrals computed using PRISM.
   1 Symmetry operations used in ECPInt.
 ECPInt:  NShTT=   55611 NPrTT=  173757 LenC2=   45262 LenP2D=   98157.
 LDataN:  DoStor=T MaxTD1= 6 Len=  172
 NBasis=   839 RedAO= T EigKep=  6.97D-06  NBF=   839
 NBsUse=   839 1.00D-06 EigRej= -1.00D+00 NBFU=   839
 ExpMin= 9.52D-02 ExpMax= 6.07D+04 ExpMxC= 2.07D+03 IAcc=3 IRadAn=         5 AccDes= 0.00D+00
 Harris functional with IExCor= 1009 and IRadAn=       5 diagonalized for initial guess.
 HarFok:  IExCor= 1009 AccDes= 0.00D+00 IRadAn=         5 IDoV= 1 UseB2=F ITyADJ=14
 ICtDFT=  3500011 ScaDFX=  1.000000  1.000000  1.000000  1.000000
 FoFCou: FMM=F IPFlag=           0 FMFlag=      100000 FMFlg1=           0
         NFxFlg=           0 DoJE=T BraDBF=F KetDBF=T FulRan=T
         wScrn=  0.000000 ICntrl=       500 IOpCl=  0 I1Cent=   200000004 NGrid=           0
         NMat0=    1 NMatS0=      1 NMatT0=    0 NMatD0=    1 NMtDS0=    0 NMtDT0=    0
 Petite list used in FoFCou.
 Requested convergence on RMS density matrix=1.00D-08 within 128 cycles.
 Requested convergence on MAX density matrix=1.00D-06.
 Requested convergence on             energy=1.00D-06.
 No special actions if energy rises.
 Inv3:  Mode=1 IEnd=    30470907.
 Iteration    1 A*A^-1 deviation from unit magnitude is 3.55D-15 for   3042.
 Iteration    1 A*A^-1 deviation from orthogonality  is 2.00D-15 for   1979     64.
 Iteration    1 A^-1*A deviation from unit magnitude is 3.55D-15 for   3042.
 Iteration    1 A^-1*A deviation from orthogonality  is 5.32D-09 for   2629   2551.
 Iteration    2 A*A^-1 deviation from unit magnitude is 2.44D-15 for    908.
 Iteration    2 A*A^-1 deviation from orthogonality  is 5.57D-15 for   1512    703.
 Iteration    2 A^-1*A deviation from unit magnitude is 1.33D-15 for    107.
 Iteration    2 A^-1*A deviation from orthogonality  is 1.13D-15 for   1067    948.
 Error on total polarization charges =  0.05585
 SCF Done:  E(RPBE+HF-PBE) =  -1640.38197510     A.U. after   12 cycles
            NFock= 12  Conv=0.89D-08     -V/T= 2.0040
 SMD-CDS (non-electrostatic) energy       (kcal/mol) =      -3.36
 (included in total energy above)
 DoSCS=F DFT=T ScalE2(SS,OS)=  1.000000  1.000000
 ExpMin= 9.52D-02 ExpMax= 6.07D+04 ExpMxC= 2.07D+03 IAcc=3 IRadAn=         5 AccDes= 0.00D+00
 HarFok:  IExCor=  205 AccDes= 0.00D+00 IRadAn=         5 IDoV=-2 UseB2=F ITyADJ=14
 ICtDFT= 12500011 ScaDFX=  1.000000  1.000000  1.000000  1.000000
 GSVD:  LWork=       -1209 too small for GESVD, short by        5270 words or        5270 for optimal perf.
 Range of M.O.s used for correlation:    32   839
 NBasis=   839 NAE=    89 NBE=    89 NFC=    31 NFV=     0
 NROrb=    808 NOA=    58 NOB=    58 NVA=   750 NVB=   750

 **** Warning!!: The largest alpha MO coefficient is  0.47446209D+02

 NEqPCM:  Using non-equilibrium solvation (IEInf=1, Eps=  24.8520, EpsInf=   1.8526)
 Inv3:  Mode=1 IEnd=    30470907.
 Iteration    1 A*A^-1 deviation from unit magnitude is 3.33D-15 for    249.
 Iteration    1 A*A^-1 deviation from orthogonality  is 2.22D-15 for   2220    596.
 Iteration    1 A^-1*A deviation from unit magnitude is 3.66D-15 for   1790.
 Iteration    1 A^-1*A deviation from orthogonality  is 2.87D-15 for   1067    948.
 Orbital symmetries:
       Occupied  (A) (A) (A) (A) (A) (A) (A) (A) (A) (A) (A) (A)
                 (A) (A) (A) (A) (A) (A) (A) (A) (A) (A) (A) (A)
                 (A) (A) (A) (A) (A) (A) (A) (A) (A) (A) (A) (A)
                 (A) (A) (A) (A) (A) (A) (A) (A) (A) (A) (A) (A)
                 (A) (A) (A) (A) (A) (A) (A) (A) (A) (A) (A) (A)
                 (A) (A) (A) (A) (A) (A) (A) (A) (A) (A) (A) (A)
                 (A) (A) (A) (A) (A) (A) (A) (A) (A) (A) (A) (A)
                 (A) (A) (A) (A) (A)
       Virtual   (A) (A) (A) (A) (A) (A) (A) (A) (A) (A) (A) (A)
                 (A) (A) (A) (A) (A) (A) (A) (A) (A) (A) (A) (A)
                 (A) (A) (A) (A) (A) (A) (A) (A) (A) (A) (A) (A)
                 (A) (A) (A) (A) (A) (A) (A) (A) (A) (A) (A) (A)
                 (A) (A) (A) (A) (A) (A) (A) (A) (A) (A) (A) (A)
                 (A) (A) (A) (A) (A) (A) (A) (A) (A) (A) (A) (A)
                 (A) (A) (A) (A) (A) (A) (A) (A) (A) (A) (A) (A)
                 (A) (A) (A) (A) (A) (A) (A) (A) (A) (A) (A) (A)
                 (A) (A) (A) (A) (A) (A) (A) (A) (A) (A) (A) (A)
                 (A) (A) (A) (A) (A) (A) (A) (A) (A) (A) (A) (A)
                 (A) (A) (A) (A) (A) (A) (A) (A) (A) (A) (A) (A)
                 (A) (A) (A) (A) (A) (A) (A) (A) (A) (A) (A) (A)
                 (A) (A) (A) (A) (A) (A) (A) (A) (A) (A) (A) (A)
                 (A) (A) (A) (A) (A) (A) (A) (A) (A) (A) (A) (A)
                 (A) (A) (A) (A) (A) (A) (A) (A) (A) (A) (A) (A)
                 (A) (A) (A) (A) (A) (A) (A) (A) (A) (A) (A) (A)
                 (A) (A) (A) (A) (A) (A) (A) (A) (A) (A) (A) (A)
                 (A) (A) (A) (A) (A) (A) (A) (A) (A) (A) (A) (A)
                 (A) (A) (A) (A) (A) (A) (A) (A) (A) (A) (A) (A)
                 (A) (A) (A) (A) (A) (A) (A) (A) (A) (A) (A) (A)
                 (A) (A) (A) (A) (A) (A) (A) (A) (A) (A) (A) (A)
                 (A) (A) (A) (A) (A) (A) (A) (A) (A) (A) (A) (A)
                 (A) (A) (A) (A) (A) (A) (A) (A) (A) (A) (A) (A)
                 (A) (A) (A) (A) (A) (A) (A) (A) (A) (A) (A) (A)
                 (A) (A) (A) (A) (A) (A) (A) (A) (A) (A) (A) (A)
                 (A) (A) (A) (A) (A) (A) (A) (A) (A) (A) (A) (A)
                 (A) (A) (A) (A) (A) (A) (A) (A) (A) (A) (A) (A)
                 (A) (A) (A) (A) (A) (A) (A) (A) (A) (A) (A) (A)
                 (A) (A) (A) (A) (A) (A) (A) (A) (A) (A) (A) (A)
                 (A) (A) (A) (A) (A) (A) (A) (A) (A) (A) (A) (A)
                 (A) (A) (A) (A) (A) (A) (A) (A) (A) (A) (A) (A)
                 (A) (A) (A) (A) (A) (A) (A) (A) (A) (A) (A) (A)
                 (A) (A) (A) (A) (A) (A) (A) (A) (A) (A) (A) (A)
                 (A) (A) (A) (A) (A) (A) (A) (A) (A) (A) (A) (A)
                 (A) (A) (A) (A) (A) (A) (A) (A) (A) (A) (A) (A)
                 (A) (A) (A) (A) (A) (A) (A) (A) (A) (A) (A) (A)
                 (A) (A) (A) (A) (A) (A) (A) (A) (A) (A) (A) (A)
                 (A) (A) (A) (A) (A) (A) (A) (A) (A) (A) (A) (A)
                 (A) (A) (A) (A) (A) (A) (A) (A) (A) (A) (A) (A)
                 (A) (A) (A) (A) (A) (A) (A) (A) (A) (A) (A) (A)
                 (A) (A) (A) (A) (A) (A) (A) (A) (A) (A) (A) (A)
                 (A) (A) (A) (A) (A) (A) (A) (A) (A) (A) (A) (A)
                 (A) (A) (A) (A) (A) (A) (A) (A) (A) (A) (A) (A)
                 (A) (A) (A) (A) (A) (A) (A) (A) (A) (A) (A) (A)
                 (A) (A) (A) (A) (A) (A) (A) (A) (A) (A) (A) (A)
                 (A) (A) (A) (A) (A) (A) (A) (A) (A) (A) (A) (A)
                 (A) (A) (A) (A) (A) (A) (A) (A) (A) (A) (A) (A)
                 (A) (A) (A) (A) (A) (A) (A) (A) (A) (A) (A) (A)
                 (A) (A) (A) (A) (A) (A) (A) (A) (A) (A) (A) (A)
                 (A) (A) (A) (A) (A) (A) (A) (A) (A) (A) (A) (A)
                 (A) (A) (A) (A) (A) (A) (A) (A) (A) (A) (A) (A)
                 (A) (A) (A) (A) (A) (A) (A) (A) (A) (A) (A) (A)
                 (A) (A) (A) (A) (A) (A) (A) (A) (A) (A) (A) (A)
                 (A) (A) (A) (A) (A) (A) (A) (A) (A) (A) (A) (A)
                 (A) (A) (A) (A) (A) (A) (A) (A) (A) (A) (A) (A)
                 (A) (A) (A) (A) (A) (A) (A) (A) (A) (A) (A) (A)
                 (A) (A) (A) (A) (A) (A) (A) (A) (A) (A) (A) (A)
                 (A) (A) (A) (A) (A) (A) (A) (A) (A) (A) (A) (A)
                 (A) (A) (A) (A) (A) (A) (A) (A) (A) (A) (A) (A)
                 (A) (A) (A) (A) (A) (A) (A) (A) (A) (A) (A) (A)
                 (A) (A) (A) (A) (A) (A) (A) (A) (A) (A) (A) (A)
                 (A) (A) (A) (A) (A) (A) (A) (A) (A) (A) (A) (A)
                 (A) (A) (A) (A) (A) (A)
   600 initial guesses have been made.
 Convergence on wavefunction:    0.001000000000000
 Iteration     1 Dimension   600 NMult     0 NNew    600
 CISAX will form   216 AO SS matrices at one time.
 New state      2 was old state      3
 New state      3 was old state      2
 New state      6 was old state      7
 New state      7 was old state      6
 New state      8 was old state     10
 New state      9 was old state      8
 New state     10 was old state      9
 New state     11 was old state     13
 New state     12 was old state     14
 New state     13 was old state     11
 New state     14 was old state     17
 New state     15 was old state     22
 New state     16 was old state     18
 New state     17 was old state     25
 New state     18 was old state     23
 New state     19 was old state     12
 New state     20 was old state     21
 New state     21 was old state     27
 New state     22 was old state     16
 New state     23 was old state     15
 New state     24 was old state     31
 New state     25 was old state     19
 New state     26 was old state     33
 New state     27 was old state     34
 New state     28 was old state     20
 New state     29 was old state     35
 New state     30 was old state     24
 New state     31 was old state     32
 New state     32 was old state     29
 New state     33 was old state     52
 New state     34 was old state     39
 New state     35 was old state     36
 New state     36 was old state     58
 New state     37 was old state     28
 New state     39 was old state     30
 New state     40 was old state     44
 New state     41 was old state     60
 New state     42 was old state     40
 New state     43 was old state     47
 New state     44 was old state     43
 New state     45 was old state     42
 New state     46 was old state     45
 New state     47 was old state     46
 New state     49 was old state     53
 New state     50 was old state     37
 New state     51 was old state     54
 New state     52 was old state     41
 New state     53 was old state     49
 New state     54 was old state     63
 New state     55 was old state     51
 New state     56 was old state     62
 New state     57 was old state     81
 New state     58 was old state     84
 New state     59 was old state     57
 New state     60 was old state     55
 New state     61 was old state     50
 New state     62 was old state     95
 New state     63 was old state     59
 New state     64 was old state     67
 New state     65 was old state     71
 New state     66 was old state     65
 New state     67 was old state     75
 New state     68 was old state     66
 New state     70 was old state     80
 New state     71 was old state     83
 New state     72 was old state     79
 New state     73 was old state     82
 New state     74 was old state     91
 New state     75 was old state     89
 New state     76 was old state     61
 New state     77 was old state    115
 New state     78 was old state    158
 New state     79 was old state     70
 New state     80 was old state     76
 New state     81 was old state     74
 New state     82 was old state     87
 New state     83 was old state     64
 New state     84 was old state     92
 New state     85 was old state    105
 New state     86 was old state     68
 New state     87 was old state     94
 New state     89 was old state    135
 New state     90 was old state    102
 New state     91 was old state     86
 New state     92 was old state     72
 New state     93 was old state     98
 New state     94 was old state     85
 New state     95 was old state     93
 New state     96 was old state    103
 New state     98 was old state    101
 New state     99 was old state    106
 New state    100 was old state     90
 New state    101 was old state    126
 New state    102 was old state     78
 New state    103 was old state    104
 New state    104 was old state     96
 New state    105 was old state    108
 New state    106 was old state     99
 New state    108 was old state    122
 New state    109 was old state    137
 New state    110 was old state    182
 New state    111 was old state    188
 New state    112 was old state    140
 New state    113 was old state    194
 New state    114 was old state    100
 New state    115 was old state    166
 New state    116 was old state    119
 New state    117 was old state    112
 New state    118 was old state    110
 New state    119 was old state     77
 New state    120 was old state    163
 New state    121 was old state    114
 New state    122 was old state    167
 New state    123 was old state    133
 New state    124 was old state    111
 New state    125 was old state    113
 New state    126 was old state    124
 New state    127 was old state    141
 New state    128 was old state    109
 New state    129 was old state    134
 New state    130 was old state    127
 New state    131 was old state    123
 New state    132 was old state    131
 New state    133 was old state    117
 New state    134 was old state    125
 New state    135 was old state    139
 New state    136 was old state    129
 New state    137 was old state    153
 New state    138 was old state    128
 New state    139 was old state    121
 New state    140 was old state    273
 New state    141 was old state    145
 New state    142 was old state    154
 New state    143 was old state    161
 New state    144 was old state    138
 New state    145 was old state    144
 New state    146 was old state    142
 New state    147 was old state    173
 New state    148 was old state    178
 New state    149 was old state    151
 New state    150 was old state    177
 Iteration     2 Dimension   900 NMult   600 NNew    300
 New state      6 was old state      7
 New state      7 was old state      6
 New state      8 was old state      9
 New state      9 was old state      8
 New state     14 was old state     15
 New state     15 was old state     14
 New state     16 was old state     17
 New state     17 was old state     18
 New state     18 was old state     16
 New state     19 was old state     20
 New state     20 was old state     22
 New state     21 was old state     19
 New state     22 was old state     21
 New state     23 was old state     28
 New state     25 was old state     23
 New state     26 was old state     25
 New state     27 was old state     31
 New state     28 was old state     26
 New state     29 was old state     27
 New state     30 was old state     37
 New state     31 was old state     30
 New state     32 was old state     29
 New state     33 was old state     32
 New state     34 was old state     39
 New state     35 was old state     34
 New state     36 was old state     33
 New state     37 was old state     35
 New state     38 was old state     36
 New state     39 was old state     38
 New state     45 was old state     47
 New state     46 was old state     50
 New state     47 was old state     45
 New state     48 was old state     46
 New state     49 was old state     48
 New state     50 was old state     57
 New state     52 was old state     49
 New state     53 was old state     52
 New state     54 was old state     53
 New state     55 was old state     54
 New state     56 was old state     61
 New state     57 was old state     55
 New state     58 was old state     56
 New state     60 was old state     62
 New state     61 was old state     58
 New state     62 was old state     60
 New state     63 was old state     68
 New state     64 was old state     71
 New state     65 was old state     64
 New state     66 was old state     63
 New state     67 was old state     65
 New state     68 was old state     76
 New state     69 was old state     67
 New state     70 was old state     66
 New state     71 was old state     80
 New state     72 was old state     69
 New state     73 was old state     79
 New state     74 was old state     70
 New state     75 was old state     72
 New state     76 was old state     74
 New state     77 was old state     73
 New state     78 was old state     77
 New state     79 was old state     75
 New state     80 was old state     78
 New state     82 was old state     98
 New state     83 was old state     82
 New state     84 was old state     83
 New state     85 was old state     84
 New state     86 was old state     85
 New state     87 was old state     89
 New state     88 was old state     87
 New state     89 was old state     88
 New state     90 was old state     86
 New state     91 was old state     90
 New state     92 was old state     91
 New state     94 was old state     92
 New state     95 was old state     94
 New state     96 was old state     97
 New state     97 was old state     95
 New state     98 was old state     96
 New state     99 was old state    100
 New state    100 was old state     99
 New state    101 was old state    104
 New state    104 was old state    101
 New state    105 was old state    106
 New state    106 was old state    105
 New state    108 was old state    112
 New state    109 was old state    110
 New state    110 was old state    108
 New state    111 was old state    109
 New state    112 was old state    111
 New state    113 was old state    115
 New state    114 was old state    113
 New state    115 was old state    116
 New state    116 was old state    124
 New state    117 was old state    120
 New state    118 was old state    114
 New state    119 was old state    118
 New state    120 was old state    122
 New state    121 was old state    117
 New state    122 was old state    119
 New state    124 was old state    135
 New state    125 was old state    121
 New state    126 was old state    125
 New state    127 was old state    126
 New state    128 was old state    130
 New state    129 was old state    127
 New state    130 was old state    129
 New state    131 was old state    132
 New state    132 was old state    136
 New state    133 was old state    131
 New state    134 was old state    138
 New state    135 was old state    133
 New state    136 was old state    134
 New state    138 was old state    128
 New state    140 was old state    145
 New state    141 was old state    140
 New state    142 was old state    141
 New state    143 was old state    142
 New state    145 was old state    143
 New state    146 was old state    154
 New state    147 was old state    146
 New state    148 was old state    147
 New state    150 was old state    148
 Iteration     3 Dimension  1200 NMult   900 NNew    300
 New state     15 was old state     16
 New state     16 was old state     15
 New state     26 was old state     27
 New state     27 was old state     26
 New state    139 was old state    140
 New state    140 was old state    139
 Iteration     4 Dimension  1482 NMult  1200 NNew    282
 Iteration     5 Dimension  1550 NMult  1482 NNew     68
 ***********************************************************************
 Excited states from <AA,BB:AA,BB> singles matrix:
 ***********************************************************************
 
 Ground to excited state transition densities written to RWF  633
 Ground to excited state transition electric dipole moments (Au):
       state          X           Y           Z        Dip. S.      Osc.
         1        -3.9215     -0.0000     -0.0292     15.3790      1.2548
         2        -0.0844      0.0000     -0.0447      0.0091      0.0009
         3        -0.0000      0.4793      0.0000      0.2297      0.0254
         4        -0.2471     -0.0000     -0.0134      0.0612      0.0070
         5        -0.0000      0.5788      0.0000      0.3350      0.0400
         6        -0.0001      0.6050     -0.0000      0.3660      0.0445
         7        -0.6893     -0.0000     -0.0601      0.4788      0.0586
         8         0.0000     -0.8274      0.0000      0.6846      0.0882
         9        -0.0000     -0.0796      0.0000      0.0063      0.0008
        10         0.7167     -0.0000      0.0254      0.5143      0.0686
        11         0.3688      0.0001     -0.0032      0.1360      0.0190
        12        -0.0001      0.0558     -0.0000      0.0031      0.0004
        13        -1.7028      0.0000     -0.0149      2.8999      0.4116
        14        -0.0000      1.4320     -0.0001      2.0507      0.3042
        15         1.0249      0.0001     -0.0252      1.0510      0.1572
        16         0.0007     -0.0915     -0.0000      0.0084      0.0013
        17         0.0004      0.4700     -0.0000      0.2209      0.0334
        18         0.6068     -0.0003      0.0164      0.3685      0.0559
        19         0.0001      0.0362      0.0002      0.0013      0.0002
        20        -0.0000     -0.3752      0.0001      0.1407      0.0222
        21         0.0076      0.0003      0.1687      0.0285      0.0045
        22        -0.2941      0.0001      0.0985      0.0962      0.0154
        23         2.3701      0.0000      0.1367      5.6361      0.9156
        24        -0.0637     -0.0000      0.1791      0.0362      0.0060
        25         0.0001     -0.1568      0.0000      0.0246      0.0041
        26        -0.0012     -0.3323     -0.0001      0.1105      0.0185
        27         0.4977     -0.0008      0.0367      0.2490      0.0416
        28        -0.0007     -0.0000     -0.0624      0.0039      0.0007
        29         0.2692      0.0000      0.0033      0.0725      0.0124
        30         0.7964     -0.0001      0.0038      0.6342      0.1085
        31         0.0000      0.9013     -0.0000      0.8124      0.1411
        32        -0.1060      0.0000      0.0163      0.0115      0.0020
        33        -0.4050     -0.0003     -0.0397      0.1656      0.0293
        34        -0.0001      0.8060     -0.0000      0.6497      0.1151
        35        -0.0000     -0.2912     -0.0000      0.0848      0.0151
        36         0.0001     -0.0296      0.0000      0.0009      0.0002
        37         0.1121     -0.0001      0.0327      0.0136      0.0024
        38         0.0001      0.0779     -0.0000      0.0061      0.0011
        39         0.0000      0.0735      0.0000      0.0054      0.0010
        40        -0.0001      0.0504      0.0000      0.0025      0.0005
        41         0.1336     -0.0000      0.0317      0.0189      0.0035
        42         0.2144      0.0000     -0.0633      0.0500      0.0092
        43         0.0001     -0.0945     -0.0000      0.0089      0.0017
        44        -0.0000      0.0164      0.0000      0.0003      0.0001
        45         0.0003      0.2091      0.0000      0.0437      0.0082
        46        -0.0002      0.1094     -0.0000      0.0120      0.0023
        47        -0.5622      0.0001      0.0165      0.3163      0.0596
        48        -0.7754      0.0001      0.0219      0.6017      0.1138
        49         0.1315     -0.0001     -0.0884      0.0251      0.0048
        50        -0.3884     -0.0005     -0.1315      0.1681      0.0320
        51         0.0007     -0.3258      0.0002      0.1061      0.0202
        52         0.0598     -0.0004      0.0079      0.0036      0.0007
        53         0.3548      0.0004     -0.0333      0.1270      0.0243
        54        -0.0000     -1.1348      0.0000      1.2877      0.2480
        55        -0.0000      0.0191     -0.0000      0.0004      0.0001
        56         0.0000      0.6712      0.0001      0.4505      0.0875
        57        -0.0001      0.0464     -0.0000      0.0022      0.0004
        58        -0.0001      0.0698      0.0001      0.0049      0.0010
        59        -0.5054     -0.0001      0.1589      0.2807      0.0550
        60         0.0922      0.0003      0.1300      0.0254      0.0050
        61         0.0004     -0.0189      0.0003      0.0004      0.0001
        62        -0.3902     -0.0001     -0.3126      0.2500      0.0494
        63        -1.0477     -0.0005      0.0238      1.0983      0.2182
        64        -0.0009      1.0674     -0.0000      1.1393      0.2264
        65         0.5131      0.0007     -0.0073      0.2634      0.0524
        66         0.0493     -0.0003      0.0908      0.0107      0.0021
        67        -0.0001      0.0512     -0.0001      0.0026      0.0005
        68        -0.3260     -0.0001     -0.0273      0.1070      0.0216
        69        -0.0934     -0.0000      0.1064      0.0201      0.0041
        70        -0.0000      0.2792      0.0000      0.0780      0.0158
        71         0.0001     -0.7708      0.0000      0.5941      0.1210
        72         0.2064      0.0001     -0.2428      0.1015      0.0207
        73        -0.1132     -0.0001     -0.1949      0.0508      0.0104
        74         0.0000      0.0594      0.0001      0.0035      0.0007
        75        -0.0017     -0.0001     -0.0560      0.0031      0.0006
        76         0.0127     -0.0000     -0.1389      0.0195      0.0040
        77        -0.0001     -0.0678     -0.0001      0.0046      0.0010
        78        -0.0003      0.0159      0.0000      0.0003      0.0001
        79         0.0000      0.0888      0.0000      0.0079      0.0016
        80         0.0003     -0.0555     -0.0000      0.0031      0.0006
        81        -0.5824     -0.0001      0.0698      0.3440      0.0719
        82         0.4590      0.0000     -0.0019      0.2107      0.0441
        83        -0.0045     -0.0002     -0.1162      0.0135      0.0029
        84        -0.0000      0.0555     -0.0000      0.0031      0.0007
        85         0.0000     -0.1377      0.0000      0.0190      0.0040
        86         0.0001     -0.0099      0.0000      0.0001      0.0000
        87        -0.1175      0.0000     -0.0294      0.0147      0.0031
        88         0.0155      0.0001      0.0465      0.0024      0.0005
        89        -0.0000      0.0868      0.0000      0.0075      0.0016
        90         0.0599      0.0000      0.0089      0.0037      0.0008
        91        -0.0000      0.0152      0.0002      0.0002      0.0000
        92        -0.0209     -0.0000     -0.1714      0.0298      0.0064
        93        -0.0000      0.1807      0.0000      0.0327      0.0071
        94         0.0066      0.0000     -0.0519      0.0027      0.0006
        95         0.0000      0.1547     -0.0000      0.0239      0.0052
        96        -0.0000     -0.0061     -0.0000      0.0000      0.0000
        97        -0.1727      0.0001     -0.1132      0.0427      0.0093
        98         0.0000      0.0311      0.0000      0.0010      0.0002
        99        -0.0799     -0.0001      0.0871      0.0140      0.0031
       100         0.0001      0.5488      0.0000      0.3012      0.0660
       101        -0.1980     -0.0004     -0.1026      0.0497      0.0110
       102        -0.0001     -0.2126     -0.0000      0.0452      0.0100
       103         0.0003     -0.3630      0.0002      0.1318      0.0291
       104         0.0323      0.0002      0.0029      0.0010      0.0002
       105         0.0476     -0.0003     -0.0091      0.0024      0.0005
       106         0.0001      0.0693     -0.0000      0.0048      0.0011
       107         0.0001      0.1927     -0.0000      0.0372      0.0083
       108        -0.0000      0.1829     -0.0000      0.0335      0.0074
       109         0.0692      0.0001      0.0495      0.0072      0.0016
       110         0.0078     -0.0006     -0.0893      0.0080      0.0018
       111        -0.0000     -0.2090      0.0002      0.0437      0.0098
       112         0.1405     -0.0006      0.1532      0.0432      0.0097
       113        -0.0005     -0.3419     -0.0002      0.1169      0.0262
       114         0.0002      0.5115     -0.0000      0.2617      0.0587
       115        -0.1551      0.0021      0.0146      0.0243      0.0054
       116        -0.0004     -0.4760      0.0001      0.2266      0.0509
       117         0.0509     -0.0004     -0.0669      0.0071      0.0016
       118         0.1906      0.0001     -0.0994      0.0462      0.0104
       119        -0.0003      0.2539      0.0002      0.0644      0.0145
       120        -0.0799      0.0000     -0.0796      0.0127      0.0029
       121        -0.0145     -0.0001     -0.0040      0.0002      0.0001
       122         0.0000     -0.0608      0.0000      0.0037      0.0008
       123         0.0000      0.2764      0.0000      0.0764      0.0173
       124         0.0000      0.2790     -0.0000      0.0778      0.0177
       125        -0.0609      0.0002      0.0336      0.0048      0.0011
       126        -0.1786     -0.0000     -0.0633      0.0359      0.0082
       127        -0.0001      0.0031      0.0000      0.0000      0.0000
       128        -0.0821      0.0001     -0.0186      0.0071      0.0016
       129        -0.1610     -0.0005      0.0333      0.0270      0.0062
       130        -0.0005      0.1232      0.0002      0.0152      0.0035
       131         0.0077     -0.0003      0.0250      0.0007      0.0002
       132         0.0001      0.1076      0.0000      0.0116      0.0027
       133         0.0276     -0.0001      0.1706      0.0299      0.0069
       134         0.0000     -0.1831     -0.0001      0.0335      0.0077
       135         0.0169     -0.0004     -0.1325      0.0178      0.0041
       136         0.0001      0.1801     -0.0003      0.0325      0.0075
       137         0.1226     -0.0002      0.0461      0.0172      0.0040
       138        -0.0001     -0.1403     -0.0000      0.0197      0.0046
       139         0.0005     -0.3242      0.0002      0.1051      0.0245
       140         0.1757      0.0009      0.0531      0.0337      0.0079
       141        -0.0007      0.0980     -0.0002      0.0096      0.0022
       142         0.1762      0.0003      0.0484      0.0334      0.0078
       143        -0.0635     -0.0001     -0.0226      0.0045      0.0011
       144        -0.1200     -0.0000     -0.0441      0.0164      0.0038
       145         0.1755      0.0000     -0.2076      0.0739      0.0174
       146        -0.1167      0.0001      0.0971      0.0231      0.0054
       147         0.0000      0.0507     -0.0000      0.0026      0.0006
       148         0.1016      0.0002     -0.0338      0.0115      0.0027
       149        -0.0004     -0.1172      0.0008      0.0137      0.0033
       150         0.0652     -0.0007     -0.1153      0.0175      0.0042
 Ground to excited state transition velocity dipole moments (Au):
       state          X           Y           Z        Dip. S.      Osc.
         1         0.4768      0.0000      0.0040      0.2273      1.2382
         2         0.0134     -0.0000      0.0075      0.0002      0.0010
         3         0.0000     -0.0793      0.0000      0.0063      0.0253
         4         0.0427      0.0000      0.0023      0.0018      0.0071
         5         0.0000     -0.1068     -0.0000      0.0114      0.0424
         6         0.0000     -0.1115      0.0000      0.0124      0.0454
         7         0.1284      0.0000      0.0107      0.0166      0.0603
         8        -0.0000      0.1628     -0.0000      0.0265      0.0914
         9         0.0000      0.0157     -0.0000      0.0002      0.0008
        10        -0.1427     -0.0000     -0.0054      0.0204      0.0680
        11        -0.0774     -0.0000      0.0027      0.0060      0.0191
        12         0.0000     -0.0112      0.0000      0.0001      0.0004
        13         0.3633     -0.0000      0.0034      0.1320      0.4133
        14         0.0000     -0.3205      0.0000      0.1027      0.3078
        15        -0.2289     -0.0000      0.0057      0.0524      0.1557
        16        -0.0002      0.0209      0.0000      0.0004      0.0013
        17        -0.0001     -0.1079      0.0000      0.0116      0.0342
        18        -0.1370      0.0001     -0.0032      0.0188      0.0551
        19        -0.0000     -0.0105     -0.0000      0.0001      0.0003
        20         0.0000      0.0874     -0.0000      0.0076      0.0215
        21        -0.0026     -0.0001     -0.0408      0.0017      0.0047
        22         0.0701     -0.0000     -0.0242      0.0055      0.0152
        23        -0.5735     -0.0000     -0.0336      0.3300      0.9029
        24         0.0144      0.0000     -0.0443      0.0022      0.0058
        25        -0.0000      0.0406     -0.0000      0.0016      0.0044
        26         0.0003      0.0831      0.0000      0.0069      0.0183
        27        -0.1253      0.0002     -0.0087      0.0158      0.0420
        28         0.0002      0.0000      0.0171      0.0003      0.0008
        29        -0.0700     -0.0000      0.0026      0.0049      0.0128
        30        -0.2076      0.0000     -0.0013      0.0431      0.1120
        31        -0.0000     -0.2355      0.0000      0.0555      0.1419
        32         0.0274     -0.0000     -0.0024      0.0008      0.0019
        33         0.1081      0.0001      0.0099      0.0118      0.0296
        34         0.0000     -0.2136      0.0000      0.0456      0.1144
        35         0.0000      0.0768      0.0000      0.0059      0.0148
        36        -0.0000      0.0088     -0.0000      0.0001      0.0002
        37        -0.0303      0.0000     -0.0090      0.0010      0.0025
        38        -0.0000     -0.0212      0.0000      0.0005      0.0011
        39        -0.0000     -0.0186     -0.0000      0.0003      0.0008
        40         0.0000     -0.0145     -0.0000      0.0002      0.0005
        41        -0.0366      0.0000     -0.0084      0.0014      0.0034
        42        -0.0583     -0.0000      0.0170      0.0037      0.0089
        43        -0.0000      0.0273     -0.0000      0.0007      0.0018
        44         0.0000     -0.0040     -0.0000      0.0000      0.0000
        45        -0.0001     -0.0597     -0.0000      0.0036      0.0084
        46         0.0001     -0.0313      0.0000      0.0010      0.0023
        47         0.1596     -0.0000     -0.0044      0.0255      0.0602
        48         0.2229     -0.0000     -0.0063      0.0497      0.1168
        49        -0.0370      0.0000      0.0249      0.0020      0.0046
        50         0.1106      0.0001      0.0366      0.0136      0.0317
        51        -0.0002      0.0923     -0.0001      0.0085      0.0198
        52        -0.0176      0.0001      0.0000      0.0003      0.0007
        53        -0.1031     -0.0001      0.0079      0.0107      0.0248
        54         0.0000      0.3261     -0.0000      0.1063      0.2453
        55         0.0000     -0.0035      0.0000      0.0000      0.0000
        56        -0.0000     -0.1923     -0.0000      0.0370      0.0847
        57         0.0000     -0.0131      0.0000      0.0002      0.0004
        58         0.0000     -0.0202     -0.0000      0.0004      0.0009
        59         0.1522      0.0000     -0.0450      0.0252      0.0571
        60        -0.0281     -0.0001     -0.0391      0.0023      0.0052
        61        -0.0001      0.0067     -0.0001      0.0000      0.0001
        62         0.1169      0.0000      0.0847      0.0208      0.0469
        63         0.3138      0.0001     -0.0048      0.0985      0.2204
        64         0.0003     -0.3150      0.0000      0.0992      0.2219
        65        -0.1543     -0.0002      0.0040      0.0238      0.0532
        66        -0.0133      0.0001     -0.0224      0.0007      0.0015
        67         0.0000     -0.0148      0.0000      0.0002      0.0005
        68         0.0989      0.0000      0.0071      0.0098      0.0217
        69         0.0285      0.0000     -0.0301      0.0017      0.0038
        70         0.0000     -0.0840     -0.0000      0.0071      0.0155
        71        -0.0001      0.2324     -0.0000      0.0540      0.1178
        72        -0.0616     -0.0000      0.0714      0.0089      0.0193
        73         0.0365      0.0000      0.0585      0.0048      0.0103
        74        -0.0000     -0.0189     -0.0000      0.0004      0.0008
        75        -0.0002      0.0000      0.0171      0.0003      0.0006
        76        -0.0031      0.0000      0.0343      0.0012      0.0025
        77         0.0000      0.0210      0.0000      0.0004      0.0010
        78         0.0001     -0.0052     -0.0000      0.0000      0.0001
        79         0.0000     -0.0278     -0.0000      0.0008      0.0016
        80        -0.0001      0.0164      0.0000      0.0003      0.0006
        81         0.1838      0.0000     -0.0214      0.0342      0.0729
        82        -0.1453     -0.0000      0.0007      0.0211      0.0448
        83         0.0016      0.0000      0.0268      0.0007      0.0015
        84         0.0000     -0.0176      0.0000      0.0003      0.0007
        85        -0.0000      0.0443     -0.0000      0.0020      0.0041
        86        -0.0000      0.0029     -0.0000      0.0000      0.0000
        87         0.0373     -0.0000      0.0089      0.0015      0.0031
        88        -0.0067     -0.0000     -0.0133      0.0002      0.0005
        89         0.0000     -0.0287     -0.0000      0.0008      0.0017
        90        -0.0214      0.0000     -0.0019      0.0005      0.0010
        91         0.0000     -0.0046     -0.0001      0.0000      0.0000
        92         0.0076      0.0000      0.0487      0.0024      0.0050
        93         0.0000     -0.0575     -0.0000      0.0033      0.0068
        94        -0.0014     -0.0000      0.0147      0.0002      0.0004
        95        -0.0000     -0.0526      0.0000      0.0028      0.0057
        96         0.0000      0.0036      0.0000      0.0000      0.0000
        97         0.0558     -0.0000      0.0352      0.0044      0.0089
        98        -0.0000     -0.0082     -0.0000      0.0001      0.0001
        99         0.0269      0.0000     -0.0290      0.0016      0.0032
       100        -0.0000     -0.1822     -0.0000      0.0332      0.0673
       101         0.0659      0.0001      0.0345      0.0055      0.0111
       102         0.0000      0.0705      0.0000      0.0050      0.0100
       103        -0.0001      0.1219     -0.0001      0.0149      0.0299
       104        -0.0099     -0.0001      0.0007      0.0001      0.0002
       105        -0.0169      0.0001      0.0021      0.0003      0.0006
       106        -0.0000     -0.0212      0.0000      0.0004      0.0009
       107        -0.0000     -0.0633      0.0000      0.0040      0.0080
       108         0.0000     -0.0594      0.0000      0.0035      0.0071
       109        -0.0211     -0.0000     -0.0150      0.0007      0.0013
       110        -0.0013      0.0002      0.0281      0.0008      0.0016
       111         0.0000      0.0698     -0.0001      0.0049      0.0097
       112        -0.0465      0.0002     -0.0509      0.0048      0.0094
       113         0.0002      0.1119      0.0001      0.0125      0.0248
       114        -0.0001     -0.1692      0.0000      0.0286      0.0567
       115         0.0509     -0.0007     -0.0028      0.0026      0.0051
       116         0.0001      0.1619     -0.0000      0.0262      0.0519
       117        -0.0178      0.0001      0.0245      0.0009      0.0018
       118        -0.0670     -0.0000      0.0310      0.0054      0.0108
       119         0.0001     -0.0872     -0.0001      0.0076      0.0150
       120         0.0241     -0.0000      0.0238      0.0011      0.0023
       121         0.0060      0.0000      0.0003      0.0000      0.0001
       122        -0.0000      0.0199      0.0000      0.0004      0.0008
       123        -0.0000     -0.0965     -0.0000      0.0093      0.0183
       124        -0.0000     -0.0936      0.0000      0.0088      0.0172
       125         0.0206     -0.0001     -0.0070      0.0005      0.0009
       126         0.0606      0.0000      0.0184      0.0040      0.0078
       127         0.0000     -0.0049     -0.0000      0.0000      0.0000
       128         0.0304     -0.0000      0.0062      0.0010      0.0019
       129         0.0557      0.0002     -0.0151      0.0033      0.0065
       130         0.0002     -0.0415     -0.0001      0.0017      0.0033
       131        -0.0027      0.0001     -0.0040      0.0000      0.0000
       132        -0.0000     -0.0363     -0.0000      0.0013      0.0025
       133        -0.0080      0.0000     -0.0553      0.0031      0.0060
       134        -0.0000      0.0607      0.0000      0.0037      0.0071
       135        -0.0071      0.0001      0.0400      0.0016      0.0032
       136        -0.0000     -0.0601      0.0001      0.0036      0.0070
       137        -0.0424      0.0001     -0.0142      0.0020      0.0038
       138         0.0000      0.0476      0.0000      0.0023      0.0043
       139        -0.0002      0.1131     -0.0000      0.0128      0.0244
       140        -0.0604     -0.0003     -0.0158      0.0039      0.0074
       141         0.0002     -0.0344      0.0001      0.0012      0.0022
       142        -0.0610     -0.0001     -0.0164      0.0040      0.0076
       143         0.0215      0.0000      0.0078      0.0005      0.0010
       144         0.0419      0.0000      0.0150      0.0020      0.0037
       145        -0.0593     -0.0000      0.0699      0.0084      0.0159
       146         0.0400     -0.0000     -0.0280      0.0024      0.0045
       147        -0.0000     -0.0183      0.0000      0.0003      0.0006
       148        -0.0340     -0.0001      0.0109      0.0013      0.0024
       149         0.0001      0.0418     -0.0003      0.0017      0.0033
       150        -0.0206      0.0003      0.0386      0.0019      0.0036
 Ground to excited state transition magnetic dipole moments (Au):
       state          X           Y           Z
         1        -0.0293     -0.0001     -0.7284
         2         0.2278     -0.0000      0.2103
         3        -0.0000     -0.0522     -0.0000
         4        -0.0109     -0.0000     -0.2693
         5         0.0000      0.0867      0.0000
         6        -0.0000      0.1328      0.0001
         7        -0.0557      0.0000      1.6419
         8        -0.0000     -0.0994     -0.0000
         9        -0.0000      0.4365      0.0001
        10         0.1253      0.0000     -1.7450
        11        -0.3059      0.0000      0.0279
        12        -0.0000      0.1946      0.0001
        13        -0.0111     -0.0001     -0.9705
        14         0.0000      0.0901     -0.0001
        15        -0.0698      0.0001      2.5251
        16        -0.0000     -0.0765      0.0016
        17        -0.0000      0.1566      0.0003
        18        -0.0374     -0.0001      0.1829
        19        -0.0002     -0.0205      0.0002
        20        -0.0002      0.0716      0.0000
        21        -0.2425     -0.0000      0.1057
        22        -0.1692     -0.0001      0.1312
        23         0.0469     -0.0000     -3.5577
        24        -0.2258      0.0000     -0.1516
        25        -0.0000     -0.0783     -0.0002
        26        -0.0001     -0.1163      0.0022
        27         0.0208     -0.0003     -0.9081
        28        -0.6271      0.0000      0.0653
        29        -0.2925      0.0000      0.3496
        30        -0.0454      0.0000      2.1929
        31         0.0000      0.0769      0.0003
        32        -0.2412     -0.0000      0.1136
        33         0.1221      0.0001      0.3102
        34         0.0001     -0.1120      0.0001
        35         0.0000     -0.3235     -0.0000
        36        -0.0000      0.0510     -0.0001
        37         0.2056     -0.0001     -0.0951
        38         0.0000     -0.0332      0.0000
        39        -0.0000      0.3643      0.0000
        40         0.0000     -0.1798     -0.0001
        41        -0.0137     -0.0000     -0.2290
        42        -0.2497     -0.0000      0.2398
        43        -0.0000     -0.2293     -0.0001
        44        -0.0001      0.5866     -0.0000
        45         0.0001     -0.0352      0.0001
        46        -0.0002      0.1004     -0.0001
        47         0.0212     -0.0001     -0.3732
        48         0.1418     -0.0001     -0.7612
        49        -0.7301     -0.0002      0.9689
        50        -0.5326     -0.0000     -0.4559
        51         0.0008     -0.0117      0.0019
        52        -0.0682      0.0000     -0.9430
        53        -0.1760     -0.0000     -0.8646
        54         0.0000      0.0360     -0.0001
        55         0.0001      0.0156     -0.0001
        56        -0.0001      0.1513      0.0000
        57        -0.0000      0.6400     -0.0001
        58        -0.0001     -0.3992     -0.0001
        59        -0.0287      0.0000      0.2879
        60        -0.1169      0.0006      0.7209
        61        -0.0002     -0.3572      0.0008
        62         0.0475     -0.0002      0.4402
        63        -0.4043     -0.0000      3.0511
        64        -0.0000      0.0748      0.0031
        65        -0.2731     -0.0001     -2.9158
        66        -0.1528     -0.0000     -0.1489
        67         0.0001     -0.2491     -0.0002
        68         0.3651      0.0000     -1.4114
        69         0.1480      0.0000     -0.4103
        70         0.0001     -0.2325      0.0004
        71         0.0000     -0.1832     -0.0001
        72         0.5904      0.0002      0.0709
        73         0.0571     -0.0002     -0.0962
        74        -0.0000     -0.2987      0.0000
        75        -0.1239     -0.0001     -0.2626
        76        -0.1716      0.0000     -0.0446
        77         0.0001     -0.3430      0.0000
        78         0.0000      0.0281      0.0003
        79        -0.0001      0.1279      0.0000
        80        -0.0000      0.4785     -0.0003
        81        -0.0172      0.0002      0.4408
        82        -0.0043      0.0000     -0.4473
        83        -0.0713     -0.0000      0.0402
        84        -0.0000     -0.5141      0.0001
        85         0.0001     -0.0141     -0.0002
        86        -0.0004      0.0285      0.0000
        87         0.3476      0.0000     -0.1088
        88        -0.2821      0.0001      0.1263
        89        -0.0003      0.0528      0.0000
        90         0.0511     -0.0001     -0.5842
        91         0.0001     -0.2377      0.0000
        92        -0.1401     -0.0002      0.0617
        93         0.0000     -0.5991     -0.0000
        94         0.3698     -0.0002     -0.2749
        95        -0.0001     -1.2013      0.0002
        96         0.0000      0.4633     -0.0001
        97        -0.0727     -0.0001     -0.1253
        98        -0.0000     -0.3098      0.0000
        99        -0.2135     -0.0000      0.3062
       100        -0.0001      0.0746      0.0000
       101        -0.2120      0.0000      0.0039
       102        -0.0000      0.0253      0.0001
       103         0.0003     -0.0624     -0.0001
       104        -0.0243      0.0001      0.0745
       105        -0.0103      0.0004      0.1291
       106        -0.0000     -0.3012      0.0002
       107        -0.0000     -0.2518      0.0002
       108         0.0000      0.1794     -0.0007
       109         0.5994      0.0003     -0.3023
       110        -0.2128     -0.0010     -0.7633
       111         0.0007     -0.5843      0.0009
       112         0.3954      0.0010     -0.6214
       113        -0.0002      0.4448      0.0022
       114        -0.0002      0.5058     -0.0002
       115        -0.0197     -0.0003     -0.1679
       116         0.0001      0.0643     -0.0002
       117        -0.4986      0.0003     -0.8397
       118         0.2016     -0.0009     -0.1848
       119        -0.0002     -0.5031      0.0006
       120         0.5831     -0.0001      0.3356
       121        -0.1875      0.0002     -0.0132
       122        -0.0002     -0.3522     -0.0000
       123        -0.0001     -0.1429     -0.0002
       124         0.0000      0.0965     -0.0001
       125         0.2746     -0.0002      0.5904
       126        -0.1196      0.0003     -0.3025
       127         0.0002      0.5616      0.0003
       128        -0.0744      0.0000      0.8366
       129         0.3083     -0.0010      0.0127
       130         0.0012      0.1404     -0.0001
       131         0.0678      0.0004      0.4576
       132        -0.0000     -0.4454      0.0005
       133         0.3492      0.0002      0.3124
       134        -0.0003      0.2061     -0.0001
       135        -0.5105     -0.0007     -0.0793
       136        -0.0013      0.2439      0.0000
       137         0.0574      0.0003     -0.6542
       138         0.0001      0.4482      0.0000
       139        -0.0004      0.3103      0.0006
       140        -0.1623     -0.0009      0.0362
       141         0.0002      0.2947     -0.0019
       142         0.0453      0.0010      0.4873
       143         0.1981     -0.0007     -0.1770
       144        -0.4103      0.0001      0.2069
       145         0.0439     -0.0000     -0.0342
       146         0.0351     -0.0001     -0.4012
       147        -0.0001      0.6824     -0.0001
       148        -0.4370     -0.0003     -0.1656
       149        -0.0025      0.2234      0.0016
       150         0.2752      0.0019     -0.2482
 Ground to excited state transition velocity quadrupole moments (Au):
       state          XX          YY          ZZ          XY          XZ          YZ
         1        -0.0000      0.0000     -0.0000     -0.4944      0.0000     -0.0328
         2        -0.0001      0.0000      0.0000      0.0066     -0.0000     -0.0390
         3         0.2532     -0.0836     -0.0067     -0.0000      0.0115     -0.0000
         4        -0.0000     -0.0000     -0.0000      0.2940     -0.0000     -0.0245
         5        -2.9621      0.2381     -0.0002     -0.0000     -0.1238     -0.0000
         6         1.1632      0.2264      0.0099      0.0001      0.0021      0.0000
         7        -0.0001     -0.0000     -0.0000      0.6480     -0.0000     -0.0006
         8        -0.6344     -0.0977      0.0007     -0.0000      0.0019      0.0000
         9         0.1763     -0.0168     -0.0010      0.0000      0.0925     -0.0000
        10        -0.0000     -0.0000     -0.0000     -0.8906      0.0000      0.0251
        11         0.0000      0.0000     -0.0000      0.2557     -0.0000      0.0336
        12         0.3875      0.0239      0.0037      0.0001     -0.0514      0.0000
        13         0.0001      0.0000     -0.0000     -1.3473      0.0000     -0.0117
        14         6.2704      0.4124     -0.0526     -0.0001      0.0750     -0.0000
        15         0.0005     -0.0000     -0.0000      2.7916     -0.0001      0.0302
        16        -0.5131      0.0209      0.0178      0.0017      0.0098      0.0000
        17        -0.6047      0.7217     -0.0081      0.0009     -0.1360     -0.0000
        18         0.0009     -0.0005      0.0000      1.1232      0.0001     -0.0146
        19        -0.6251     -0.1283     -0.0058      0.0005     -0.0588     -0.0002
        20         0.3363      0.4587     -0.0044      0.0004     -0.0776     -0.0002
        21         0.0006     -0.0002      0.0000      0.4418      0.0001     -0.1888
        22         0.0002     -0.0001     -0.0000      0.3074      0.0000     -0.1697
        23        -0.0003      0.0001     -0.0000     -0.9310      0.0000     -0.0084
        24        -0.0005      0.0000     -0.0000     -0.1352     -0.0000     -0.1829
        25         3.0883     -0.4413      0.0128     -0.0001      0.1379     -0.0000
        26         8.4804     -1.1081     -0.0302      0.0016      0.3208      0.0001
[...]
    24  H   -0.000000  -0.000001   0.000018   0.000023  -0.000000  -0.000001
    25  H   -0.050147   0.010472  -0.004380  -0.000000   0.000000  -0.000000
    26  H    0.442442  -0.049937   0.011520  -0.000000   0.000000  -0.000000
    27  H   -0.047987   0.435937  -0.048763  -0.000000  -0.000000   0.000000
    28  H    0.007322  -0.034472   0.432242   0.000000   0.000000  -0.000000
    29  H    0.000000  -0.000000   0.000000   0.442558  -0.050148   0.010472
    30  H    0.000000  -0.000000   0.000000  -0.054795   0.442442  -0.049937
    31  H   -0.000000   0.000000  -0.000000   0.009711  -0.047986   0.435937
    32  H    0.000000  -0.000000  -0.000000  -0.001423   0.007322  -0.034472
    33  H    0.000021  -0.000102   0.001412   0.000000  -0.000000   0.000000
    34  H   -0.000287   0.002888   0.004265  -0.000000   0.000000  -0.000000
    35  H    0.000023   0.000079   0.002713   0.000000  -0.000000   0.000000
    36  H   -0.000006   0.000028   0.000317  -0.000000   0.000000  -0.000000
    37  H    0.000002  -0.000013  -0.000013  -0.000000   0.000000   0.000000
    38  H   -0.000000   0.000000  -0.000001  -0.000040   0.000021  -0.000102
    39  H    0.000000  -0.000000   0.000000   0.000305  -0.000286   0.002887
    40  H   -0.000000   0.000000  -0.000000  -0.000035   0.000023   0.000079
    41  H    0.000000  -0.000000   0.000000   0.000020  -0.000006   0.000028
    42  H    0.000000   0.000000   0.000000  -0.000003   0.000002  -0.000013
              19         20         21         22         23         24
     1  C    0.000029  -0.054522   0.000025   0.005334   0.002030  -0.019736
     2  C   -0.000712  -0.000457  -0.001830  -0.000454  -0.001825   0.391894
     3  C    0.001732   0.005346   0.002026  -0.054529   0.000021  -0.019710
     4  N   -0.072972   0.000077   0.000022   0.289102  -0.039293  -0.006662
     5  S    0.000042   0.003844  -0.000358  -0.000012  -0.000011   0.003714
     6  C    0.000001   0.011852   0.001073   0.000009   0.000002  -0.000351
     7  C   -0.000000  -0.044040   0.002601  -0.000025   0.000004   0.000497
     8  N   -0.000001   0.289091  -0.039292   0.000077   0.000022  -0.006661
     9  S    0.023492  -0.000012  -0.000011   0.003844  -0.000358   0.003714
    10  C    0.037014   0.000009   0.000002   0.011850   0.001071  -0.000351
    11  C    0.342938  -0.000025   0.000004  -0.044042   0.002600   0.000497
    12  C    0.000000   0.000262  -0.000020   0.000000  -0.000000   0.000023
    13  C   -0.000000  -0.000097   0.000001  -0.000000   0.000000  -0.000000
    14  C    0.000000   0.000049   0.000320   0.000000  -0.000000  -0.000001
    15  C   -0.000000  -0.002918  -0.004952  -0.000001  -0.000000   0.000018
    16  C   -0.081748   0.000000  -0.000000   0.000262  -0.000020   0.000023
    17  C    0.041979  -0.000000   0.000000  -0.000098   0.000001  -0.000000
    18  C    0.440955   0.000000  -0.000000   0.000049   0.000321  -0.000001
    19  C    5.201616  -0.000001  -0.000000  -0.002919  -0.004952   0.000018
    20  C   -0.000001   4.938450   0.336995  -0.000539  -0.000051   0.002754
    21  C   -0.000000   0.336995   4.967900  -0.000051   0.000051  -0.003448
    22  C   -0.002919  -0.000539  -0.000051   4.938472   0.336982   0.002755
    23  C   -0.004952  -0.000051   0.000051   0.336982   4.967922  -0.003449
    24  H    0.000018   0.002754  -0.003448   0.002755  -0.003449   0.431099
    25  H    0.000000   0.000018  -0.000001  -0.000000  -0.000000  -0.000000
    26  H    0.000000  -0.000003   0.000001  -0.000000  -0.000000   0.000000
    27  H   -0.000000  -0.000002   0.000003   0.000000   0.000000  -0.000000
    28  H   -0.000000   0.002861  -0.001743  -0.000000   0.000000  -0.000009
    29  H   -0.004380  -0.000000  -0.000000   0.000018  -0.000001  -0.000000
    30  H    0.011519  -0.000000  -0.000000  -0.000003   0.000001   0.000000
    31  H   -0.048763   0.000000   0.000000  -0.000002   0.000003  -0.000000
    32  H    0.432239  -0.000000   0.000000   0.002862  -0.001744  -0.000009
    33  H   -0.000001   0.393784  -0.027435   0.000154   0.000179   0.001603
    34  H    0.000000   0.396116  -0.025123   0.000007  -0.000002   0.000357
    35  H   -0.000000  -0.033233   0.410529   0.000000  -0.000000   0.000327
    36  H    0.000000  -0.035019   0.413949  -0.000134   0.000009  -0.000189
    37  H    0.000000  -0.035015   0.408396   0.000021   0.000002   0.000088
    38  H    0.001412   0.000154   0.000179   0.393797  -0.027439   0.001600
    39  H    0.004268   0.000007  -0.000002   0.396108  -0.025121   0.000357
    40  H    0.002712   0.000000  -0.000000  -0.033228   0.410525   0.000327
    41  H    0.000317  -0.000134   0.000009  -0.035031   0.413957  -0.000188
    42  H   -0.000013   0.000021   0.000002  -0.035013   0.408393   0.000088
              25         26         27         28         29         30
     1  C    0.000200   0.000009   0.000019  -0.000695   0.000006  -0.000000
     2  C   -0.000035   0.000000  -0.000002   0.000038  -0.000035   0.000000
     3  C    0.000006  -0.000000  -0.000000   0.000008   0.000200   0.000009
     4  N    0.000000   0.000000  -0.000000  -0.000000  -0.000029   0.000027
     5  S   -0.004271  -0.000223   0.000023  -0.000208  -0.000029  -0.000000
     6  C   -0.059528   0.011451  -0.001928   0.007460  -0.000000  -0.000000
     7  C    0.017167  -0.003057   0.010996  -0.043695   0.000000   0.000000
     8  N   -0.000029   0.000027  -0.000103  -0.002955   0.000000   0.000000
     9  S   -0.000029  -0.000000  -0.000000   0.000000  -0.004271  -0.000223
    10  C   -0.000000  -0.000000  -0.000000   0.000000  -0.059529   0.011450
    11  C    0.000000   0.000000   0.000000  -0.000000   0.017167  -0.003057
    12  C    0.442558  -0.054796   0.009711  -0.001423  -0.000000  -0.000000
    13  C   -0.050147   0.442442  -0.047987   0.007322   0.000000   0.000000
    14  C    0.010472  -0.049937   0.435937  -0.034472  -0.000000  -0.000000
    15  C   -0.004380   0.011520  -0.048763   0.432242   0.000000   0.000000
    16  C   -0.000000  -0.000000  -0.000000   0.000000   0.442558  -0.054795
    17  C    0.000000   0.000000  -0.000000   0.000000  -0.050148   0.442442
    18  C   -0.000000  -0.000000   0.000000  -0.000000   0.010472  -0.049937
    19  C    0.000000   0.000000  -0.000000  -0.000000  -0.004380   0.011519
    20  C    0.000018  -0.000003  -0.000002   0.002861  -0.000000  -0.000000
    21  C   -0.000001   0.000001   0.000003  -0.001743  -0.000000  -0.000000
    22  C   -0.000000  -0.000000   0.000000  -0.000000   0.000018  -0.000003
    23  C   -0.000000  -0.000000   0.000000   0.000000  -0.000001   0.000001
    24  H   -0.000000   0.000000  -0.000000  -0.000009  -0.000000   0.000000
    25  H    0.469709  -0.006198  -0.000119   0.000016  -0.000000  -0.000000
    26  H   -0.006198   0.479394  -0.006156  -0.000091  -0.000000  -0.000000
    27  H   -0.000119  -0.006156   0.477591  -0.005786   0.000000   0.000000
    28  H    0.000016  -0.000091  -0.005786   0.455354  -0.000000  -0.000000
    29  H   -0.000000  -0.000000   0.000000  -0.000000   0.469710  -0.006198
    30  H   -0.000000  -0.000000   0.000000  -0.000000  -0.006198   0.479394
    31  H    0.000000   0.000000  -0.000000   0.000000  -0.000119  -0.006156
    32  H   -0.000000  -0.000000   0.000000   0.000000   0.000016  -0.000091
    33  H   -0.000001  -0.000000  -0.000001   0.000401   0.000000  -0.000000
    34  H    0.000002  -0.000001  -0.000011  -0.001232  -0.000000   0.000000
    35  H   -0.000000  -0.000000   0.000000   0.000505   0.000000  -0.000000
    36  H    0.000000  -0.000000  -0.000000   0.000034  -0.000000   0.000000
    37  H    0.000000  -0.000000   0.000000   0.000119   0.000000   0.000000
    38  H    0.000000  -0.000000   0.000000  -0.000000  -0.000001  -0.000000
    39  H   -0.000000   0.000000  -0.000000   0.000000   0.000002  -0.000001
    40  H    0.000000  -0.000000   0.000000  -0.000000  -0.000000  -0.000000
    41  H   -0.000000   0.000000  -0.000000  -0.000000   0.000000  -0.000000
    42  H    0.000000   0.000000   0.000000  -0.000000   0.000000  -0.000000
              31         32         33         34         35         36
     1  C   -0.000000   0.000008  -0.030274   0.007999  -0.000640   0.000447
     2  C   -0.000002   0.000037   0.016827  -0.000301   0.000226   0.002458
     3  C    0.000019  -0.000695   0.004957  -0.000102  -0.000041   0.000650
     4  N   -0.000103  -0.002955  -0.000083  -0.000001  -0.000001   0.000010
     5  S   -0.000000   0.000000  -0.000027  -0.000404  -0.000014  -0.000183
     6  C   -0.000000   0.000000  -0.000424  -0.000722   0.000223  -0.000114
     7  C    0.000000  -0.000000   0.007829  -0.019001   0.000934  -0.001255
     8  N   -0.000000  -0.000000  -0.019055  -0.017176  -0.001288  -0.000493
     9  S    0.000023  -0.000208  -0.000031   0.000000   0.000000  -0.000008
    10  C   -0.001927   0.007459   0.000014  -0.000000   0.000000   0.000000
    11  C    0.010996  -0.043691  -0.000019   0.000000  -0.000000   0.000005
    12  C   -0.000000   0.000000  -0.000040   0.000305  -0.000036   0.000020
    13  C   -0.000000   0.000000   0.000021  -0.000287   0.000023  -0.000006
    14  C    0.000000  -0.000000  -0.000102   0.002888   0.000079   0.000028
    15  C   -0.000000  -0.000000   0.001412   0.004265   0.002713   0.000317
    16  C    0.009711  -0.001423   0.000000  -0.000000   0.000000  -0.000000
    17  C   -0.047986   0.007322  -0.000000   0.000000  -0.000000   0.000000
    18  C    0.435937  -0.034472   0.000000  -0.000000   0.000000  -0.000000
    19  C   -0.048763   0.432239  -0.000001   0.000000  -0.000000   0.000000
    20  C    0.000000  -0.000000   0.393784   0.396116  -0.033233  -0.035019
    21  C    0.000000   0.000000  -0.027435  -0.025123   0.410529   0.413949
    22  C   -0.000002   0.002862   0.000154   0.000007   0.000000  -0.000134
    23  C    0.000003  -0.001744   0.000179  -0.000002  -0.000000   0.000009
    24  H   -0.000000  -0.000009   0.001603   0.000357   0.000327  -0.000189
    25  H    0.000000  -0.000000  -0.000001   0.000002  -0.000000   0.000000
    26  H    0.000000  -0.000000  -0.000000  -0.000001  -0.000000  -0.000000
    27  H   -0.000000   0.000000  -0.000001  -0.000011   0.000000  -0.000000
    28  H    0.000000   0.000000   0.000401  -0.001232   0.000505   0.000034
    29  H   -0.000119   0.000016   0.000000  -0.000000   0.000000  -0.000000
    30  H   -0.006156  -0.000091  -0.000000   0.000000  -0.000000   0.000000
    31  H    0.477591  -0.005786   0.000000  -0.000000   0.000000  -0.000000
    32  H   -0.005786   0.455348  -0.000000   0.000000  -0.000000  -0.000000
    33  H    0.000000  -0.000000   0.497403  -0.019073   0.004339  -0.004342
    34  H   -0.000000   0.000000  -0.019073   0.495332  -0.004844   0.004134
    35  H    0.000000  -0.000000   0.004339  -0.004844   0.501907  -0.021711
    36  H   -0.000000  -0.000000  -0.004342   0.004134  -0.021711   0.500781
    37  H    0.000000  -0.000000  -0.001325  -0.001413  -0.018691  -0.019140
    38  H   -0.000001   0.000401  -0.000131  -0.000007   0.000006   0.000407
    39  H   -0.000011  -0.001231  -0.000007  -0.000000  -0.000000   0.000002
    40  H    0.000000   0.000505   0.000006  -0.000000   0.000000  -0.000000
    41  H   -0.000000   0.000034   0.000407   0.000002  -0.000000  -0.000002
    42  H    0.000000   0.000119  -0.000057  -0.000000   0.000000   0.000003
              37         38         39         40         41         42
     1  C    0.000261   0.004951  -0.000101  -0.000042   0.000653  -0.000021
     2  C   -0.000321   0.016826  -0.000300   0.000226   0.002457  -0.000321
     3  C   -0.000021  -0.030266   0.007997  -0.000639   0.000445   0.000261
     4  N   -0.000000  -0.019060  -0.017176  -0.001288  -0.000492   0.005481
     5  S    0.000017  -0.000031   0.000000   0.000000  -0.000008   0.000001
     6  C   -0.000018   0.000014  -0.000000   0.000000   0.000000  -0.000000
     7  C   -0.000015  -0.000019   0.000000  -0.000000   0.000005   0.000000
     8  N    0.005481  -0.000083  -0.000001  -0.000001   0.000010  -0.000000
     9  S    0.000001  -0.000027  -0.000404  -0.000014  -0.000183   0.000017
    10  C   -0.000000  -0.000424  -0.000721   0.000223  -0.000114  -0.000018
    11  C    0.000000   0.007828  -0.019000   0.000933  -0.001254  -0.000015
    12  C   -0.000003   0.000000  -0.000000   0.000000  -0.000000  -0.000000
    13  C    0.000002  -0.000000   0.000000  -0.000000   0.000000   0.000000
    14  C   -0.000013   0.000000  -0.000000   0.000000  -0.000000   0.000000
    15  C   -0.000013  -0.000001   0.000000  -0.000000   0.000000   0.000000
    16  C   -0.000000  -0.000040   0.000305  -0.000035   0.000020  -0.000003
    17  C    0.000000   0.000021  -0.000286   0.000023  -0.000006   0.000002
    18  C    0.000000  -0.000102   0.002887   0.000079   0.000028  -0.000013
    19  C    0.000000   0.001412   0.004268   0.002712   0.000317  -0.000013
    20  C   -0.035015   0.000154   0.000007   0.000000  -0.000134   0.000021
    21  C    0.408396   0.000179  -0.000002  -0.000000   0.000009   0.000002
    22  C    0.000021   0.393797   0.396108  -0.033228  -0.035031  -0.035013
    23  C    0.000002  -0.027439  -0.025121   0.410525   0.413957   0.408393
    24  H    0.000088   0.001600   0.000357   0.000327  -0.000188   0.000088
    25  H    0.000000   0.000000  -0.000000   0.000000  -0.000000   0.000000
    26  H   -0.000000  -0.000000   0.000000  -0.000000   0.000000   0.000000
    27  H    0.000000   0.000000  -0.000000   0.000000  -0.000000   0.000000
    28  H    0.000119  -0.000000   0.000000  -0.000000  -0.000000  -0.000000
    29  H    0.000000  -0.000001   0.000002  -0.000000   0.000000   0.000000
    30  H    0.000000  -0.000000  -0.000001  -0.000000  -0.000000  -0.000000
    31  H    0.000000  -0.000001  -0.000011   0.000000  -0.000000   0.000000
    32  H   -0.000000   0.000401  -0.001231   0.000505   0.000034   0.000119
    33  H   -0.001325  -0.000131  -0.000007   0.000006   0.000407  -0.000057
    34  H   -0.001413  -0.000007  -0.000000  -0.000000   0.000002  -0.000000
    35  H   -0.018691   0.000006  -0.000000   0.000000  -0.000000   0.000000
    36  H   -0.019140   0.000407   0.000002  -0.000000  -0.000002   0.000003
    37  H    0.500966  -0.000057  -0.000000   0.000000   0.000003  -0.000002
    38  H   -0.000057   0.497397  -0.019068   0.004339  -0.004340  -0.001326
    39  H   -0.000000  -0.019068   0.495325  -0.004844   0.004134  -0.001412
    40  H    0.000000   0.004339  -0.004844   0.501908  -0.021712  -0.018691
    41  H    0.000003  -0.004340   0.004134  -0.021712   0.500778  -0.019140
    42  H   -0.000002  -0.001326  -0.001412  -0.018691  -0.019140   0.500969
 Mulliken charges:
               1
     1  C    0.165022
     2  C   -0.432983
     3  C    0.165001
     4  N    0.098618
     5  S    0.036855
     6  C    0.013350
     7  C    0.186639
     8  N    0.098611
     9  S    0.036857
    10  C    0.013353
    11  C    0.186631
    12  C   -0.206868
    13  C   -0.174474
    14  C   -0.123723
    15  C   -0.325821
    16  C   -0.206864
    17  C   -0.174472
    18  C   -0.123727
    19  C   -0.325819
    20  C   -0.175623
    21  C   -0.439819
    22  C   -0.175623
    23  C   -0.439828
    24  H    0.219015
    25  H    0.184592
    26  H    0.175619
    27  H    0.176575
    28  H    0.185948
    29  H    0.184592
    30  H    0.175619
    31  H    0.176576
    32  H    0.185953
    33  H    0.173093
    34  H    0.178292
    35  H    0.158689
    36  H    0.159345
    37  H    0.160691
    38  H    0.173092
    39  H    0.178294
    40  H    0.158688
    41  H    0.159347
    42  H    0.160689
 Sum of Mulliken charges =   1.00000
 Mulliken charges with hydrogens summed into heavy atoms:
               1
     1  C    0.165022
     2  C   -0.213968
     3  C    0.165001
     4  N    0.098618
     5  S    0.036855
     6  C    0.013350
     7  C    0.186639
     8  N    0.098611
     9  S    0.036857
    10  C    0.013353
    11  C    0.186631
    12  C   -0.022276
    13  C    0.001144
    14  C    0.052853
    15  C   -0.139873
    16  C   -0.022272
    17  C    0.001147
    18  C    0.052848
    19  C   -0.139866
    20  C    0.175762
    21  C    0.038906
    22  C    0.175763
    23  C    0.038897
 Electronic spatial extent (au):  <R**2>=          10363.3989
 Charge=              1.0000 electrons
 Dipole moment (field-independent basis, Debye):
    X=              0.0001    Y=              5.3212    Z=              0.0001  Tot=              5.3212
 Quadrupole moment (field-independent basis, Debye-Ang):
   XX=            -66.1642   YY=           -107.0301   ZZ=           -153.6236
   XY=             -0.0003   XZ=              2.2592   YZ=             -0.0006
 Traceless Quadrupole moment (field-independent basis, Debye-Ang):
   XX=             42.7751   YY=              1.9092   ZZ=            -44.6843
   XY=             -0.0003   XZ=              2.2592   YZ=             -0.0006
 Octapole moment (field-independent basis, Debye-Ang**2):
  XXX=              0.0022  YYY=             22.7493  ZZZ=              0.0004  XYY=             -0.0003
  XXY=              0.3700  XXZ=              0.0026  XZZ=             -0.0001  YZZ=             15.2436
  YYZ=              0.0018  XYZ=              7.2043
 Hexadecapole moment (field-independent basis, Debye-Ang**3):
 XXXX=          -8370.0080 YYYY=          -2281.9984 ZZZZ=           -333.9780 XXXY=             -0.0066
 XXXZ=             81.9073 YYYX=             -0.0084 YYYZ=             -0.0037 ZZZX=            -10.9250
 ZZZY=              0.0015 XXYY=          -1793.5676 XXZZ=          -2121.7668 YYZZ=           -513.9044
 XXYZ=             -0.0148 YYXZ=              1.8326 ZZXY=              0.0002
 N-N= 2.127852619795D+03 E-N=-8.084251048759D+03  KE= 1.633911982688D+03

 Test job not archived.
 1\1\GINC-CN02\SP\RPBEPBE TD-FC\def2TZVP\C19H19N2S2(1+)\2100011873\05-N
 ov-2023\0\\# td=(nstates=150) PBEPBE/def2TZVP IOp(3/76=1000003750) IOp
 (3/77=0625006250) IOp(3/78=1000010000) scrf(smd, solvent=ethanol)\\A-1
 \\1,1\C,0,-1.259214,0.216698,-0.039367\C,0,0.000003,0.828935,-0.000122
 \C,0,1.259209,0.216684,0.039249\N,0,2.433464,0.904848,0.145998\S,0,-1.
 557561,-1.512152,0.053882\C,0,-3.297665,-1.258824,-0.027283\C,0,-3.589
 904,0.108866,-0.118299\N,0,-2.433474,0.904863,-0.146106\S,0,1.557549,-
 1.512171,-0.053923\C,0,3.297657,-1.25885,0.027304\C,0,3.5899,0.108842,
 0.118251\C,0,-4.301571,-2.224422,-0.003624\C,0,-5.624645,-1.792125,-0.
 066975\C,0,-5.925643,-0.425687,-0.149009\C,0,-4.920394,0.538274,-0.174
 272\C,0,4.301563,-2.22445,0.003718\C,0,5.624635,-1.792149,0.067066\C,0
 ,5.925635,-0.425707,0.149021\C,0,4.920384,0.538258,0.174213\C,0,-2.510
 348,2.373529,-0.257226\C,0,-2.566433,3.073786,1.101522\C,0,2.510339,2.
 373497,0.257299\C,0,2.566508,3.073929,-1.101357\H,0,0.000014,1.90904,-
 0.000214\H,0,-4.060576,-3.280313,0.063971\H,0,-6.427238,-2.522132,-0.0
 49094\H,0,-6.962056,-0.106514,-0.191342\H,0,-5.176748,1.590213,-0.2281
 3\H,0,4.060566,-3.280345,-0.063815\H,0,6.42723,-2.522156,0.049231\H,0,
 6.962048,-0.106532,0.191339\H,0,5.176733,1.590201,0.228019\H,0,-1.6574
 88,2.708489,-0.852128\H,0,-3.398115,2.597174,-0.852215\H,0,-3.441185,2
 .752064,1.674572\H,0,-1.673838,2.863356,1.699082\H,0,-2.63423,4.156364
 ,0.954302\H,0,1.657436,2.708379,0.852183\H,0,3.398074,2.597059,0.85237
 \H,0,3.441334,2.752344,-1.674368\H,0,1.673988,2.86351,-1.699033\H,0,2.
 634214,4.156493,-0.95399\\Version=ES64L-G16RevC.02\State=1-A\HF=-1640.
 3819751\RMSD=8.883e-09\PG=C01 [X(C19H19N2S2)]\\@


 ERWIN WITH HIS PSI CAN DO
 CALCULATIONS QUITE A FEW.
 BUT ONE THING HAS NOT BEEN SEEN
 JUST WHAT DOES PSI REALLY MEAN.
 -- WALTER HUCKEL, TRANS. BY FELIX BLOCH
 Job cpu time:       2 days 18 hours 31 minutes 40.2 seconds.
 Elapsed time:       0 days  1 hours 56 minutes 32.7 seconds.
 File lengths (MBytes):  RWF=  28848 Int=      0 D2E=      0 Chk=   2880 Scr=     32
 Normal termination of Gaussian 16 at Sun Nov  5 14:21:37 2023.
