 Entering Gaussian System, Link 0=g16
 Initial command:
 /nfs-share/home/2100011873/Gaussian16_AVX2/g16/l1.exe "/nfs-share/home/2100011873/GaussTmp/Gau-77317.inp" -scrdir="/nfs-share/home/2100011873/GaussTmp/"
 Entering Link 1 = /nfs-share/home/2100011873/Gaussian16_AVX2/g16/l1.exe PID=     77318.
  
 Copyright (c) 1988-2021, Gaussian, Inc.  All Rights Reserved.
  
 This is part of the Gaussian(R) 16 program.  It is based on
 the Gaussian(R) 09 system (copyright 2009, Gaussian, Inc.),
 the Gaussian(R) 03 system (copyright 2003, Gaussian, Inc.),
 the Gaussian(R) 98 system (copyright 1998, Gaussian, Inc.),
 the Gaussian(R) 94 system (copyright 1995, Gaussian, Inc.),
 the Gaussian 92(TM) system (copyright 1992, Gaussian, Inc.),
 the Gaussian 90(TM) system (copyright 1990, Gaussian, Inc.),
 the Gaussian 88(TM) system (copyright 1988, Gaussian, Inc.),
 the Gaussian 86(TM) system (copyright 1986, Carnegie Mellon
 University), and the Gaussian 82(TM) system (copyright 1983,
 Carnegie Mellon University). Gaussian is a federally registered
 trademark of Gaussian, Inc.
  
 This software contains proprietary and confidential information,
 including trade secrets, belonging to Gaussian, Inc.
  
 This software is provided under written license and may be
 used, copied, transmitted, or stored only in accord with that
 written license.
  
 The following legend is applicable only to US Government
 contracts under FAR:
  
                    RESTRICTED RIGHTS LEGEND
  
 Use, reproduction and disclosure by the US Government is
 subject to restrictions as set forth in subparagraphs (a)
 and (c) of the Commercial Computer Software - Restricted
 Rights clause in FAR 52.227-19.
  
 Gaussian, Inc.
 340 Quinnipiac St., Bldg. 40, Wallingford CT 06492
  
  
 ---------------------------------------------------------------
 Warning -- This program may not be used in any manner that
 competes with the business of Gaussian, Inc. or will provide
 assistance to any competitor of Gaussian, Inc.  The licensee
 of this program is prohibited from giving any competitor of
 Gaussian, Inc. access to this program.  By using this program,
 the user acknowledges that Gaussian, Inc. is engaged in the
 business of creating and licensing software in the field of
 computational chemistry and represents and warrants to the
 licensee that it is not a competitor of Gaussian, Inc. and that
 it will not use this program in any manner prohibited above.
 ---------------------------------------------------------------
  

 Cite this work as:
 Gaussian 16, Revision C.02,
 M. J. Frisch, G. W. Trucks, H. B. Schlegel, G. E. Scuseria, 
 M. A. Robb, J. R. Cheeseman, G. Scalmani, V. Barone, 
 G. A. Petersson, H. Nakatsuji, X. Li, M. Caricato, A. V. Marenich, 
 J. Bloino, B. G. Janesko, R. Gomperts, B. Mennucci, H. P. Hratchian, 
 J. V. Ortiz, A. F. Izmaylov, J. L. Sonnenberg, D. Williams-Young, 
 F. Ding, F. Lipparini, F. Egidi, J. Goings, B. Peng, A. Petrone, 
 T. Henderson, D. Ranasinghe, V. G. Zakrzewski, J. Gao, N. Rega, 
 G. Zheng, W. Liang, M. Hada, M. Ehara, K. Toyota, R. Fukuda, 
 J. Hasegawa, M. Ishida, T. Nakajima, Y. Honda, O. Kitao, H. Nakai, 
 T. Vreven, K. Throssell, J. A. Montgomery, Jr., J. E. Peralta, 
 F. Ogliaro, M. J. Bearpark, J. J. Heyd, E. N. Brothers, K. N. Kudin, 
 V. N. Staroverov, T. A. Keith, R. Kobayashi, J. Normand, 
 K. Raghavachari, A. P. Rendell, J. C. Burant, S. S. Iyengar, 
 J. Tomasi, M. Cossi, J. M. Millam, M. Klene, C. Adamo, R. Cammi, 
 J. W. Ochterski, R. L. Martin, K. Morokuma, O. Farkas, 
 J. B. Foresman, and D. J. Fox, Gaussian, Inc., Wallingford CT, 2019.
 
 ******************************************
 Gaussian 16:  ES64L-G16RevC.02  7-Dec-2021
                 4-Nov-2023 
 ******************************************
 %nprocshared=32
 Will use up to   32 processors via shared memory.
 %mem=128GB
 ----------------------------------------------------------------------
 # td=(nstates=50) PBEPBE/def2TZVP IOp(3/76=1000003750) IOp(3/77=062500
 6250) IOp(3/78=1000010000) scrf(smd, solvent=ethanol)
 ----------------------------------------------------------------------
 1/38=1,172=1/1;
 2/12=2,17=6,18=5,40=1/2;
 3/5=44,7=101,11=9,25=1,30=1,70=32201,72=4,74=1009,76=1000003750,77=625006250,78=1000010000/1,2,3,8;
 4//1;
 5/5=2,38=5,53=4/2;
 8/6=1,10=1,108=50/1;
 9/41=50,42=1,70=2/14;
 6/7=2,8=2,9=2,10=2/1;
 99/5=1,9=1/99;
 ---
 B-2
 ---
 Symbolic Z-matrix:
 Charge =  0 Multiplicity = 1
 C                     4.18604  -0.98524  -0.00011 
 C                     2.96568  -0.09996   0.00002 
 C                     1.72426  -0.63647  -0.00021 
 C                     0.45258   0.05967  -0.00018 
 C                    -0.74108  -0.57941  -0.00021 
 C                    -2.06437   0.04042  -0.00014 
 C                    -3.15288  -0.76323   0.00025 
 C                    -4.60417  -0.38585   0.00043 
 C                     3.26039   1.37827   0.00057 
 C                    -2.13318   1.55026  -0.00054 
 H                     4.81718  -0.79122  -0.87967 
 H                     4.8171   -0.79165   0.8796 
 H                     3.9221   -2.04745  -0.00037 
 H                     1.65238  -1.72528  -0.00049 
 H                     0.46913   1.14647  -0.00011 
 H                    -0.73542  -1.67054  -0.0003 
 H                    -2.96813  -1.83864   0.00044 
 H                    -4.77347   0.69375   0.00148 
 H                    -5.11489  -0.80271  -0.87923 
 H                    -5.11504  -0.80447   0.87914 
 H                     2.363     2.00076   0.00008 
 H                     3.85901   1.65372   0.88055 
 H                     3.86032   1.65418  -0.87836 
 H                    -1.62727   1.96404  -0.8821 
 H                    -3.15869   1.92368  -0.00045 
 H                    -1.62693   1.9646    0.88057 
 
                          Input orientation:                          
 ---------------------------------------------------------------------
 Center     Atomic      Atomic             Coordinates (Angstroms)
 Number     Number       Type             X           Y           Z
 ---------------------------------------------------------------------
      1          6           0        4.186043   -0.985243   -0.000113
      2          6           0        2.965678   -0.099955    0.000017
      3          6           0        1.724259   -0.636470   -0.000213
      4          6           0        0.452578    0.059668   -0.000179
      5          6           0       -0.741079   -0.579413   -0.000205
      6          6           0       -2.064372    0.040415   -0.000137
      7          6           0       -3.152878   -0.763225    0.000253
      8          6           0       -4.604173   -0.385851    0.000427
      9          6           0        3.260391    1.378273    0.000567
     10          6           0       -2.133175    1.550261   -0.000541
     11          1           0        4.817179   -0.791217   -0.879673
     12          1           0        4.817098   -0.791647    0.879598
     13          1           0        3.922096   -2.047445   -0.000374
     14          1           0        1.652379   -1.725280   -0.000493
     15          1           0        0.469127    1.146468   -0.000113
     16          1           0       -0.735417   -1.670538   -0.000304
     17          1           0       -2.968126   -1.838635    0.000440
     18          1           0       -4.773466    0.693748    0.001475
     19          1           0       -5.114894   -0.802710   -0.879231
     20          1           0       -5.115042   -0.804470    0.879137
     21          1           0        2.363003    2.000757    0.000075
     22          1           0        3.859006    1.653716    0.880554
     23          1           0        3.860320    1.654180   -0.878355
     24          1           0       -1.627265    1.964044   -0.882102
     25          1           0       -3.158688    1.923675   -0.000452
     26          1           0       -1.626926    1.964596    0.880567
 ---------------------------------------------------------------------
                    Distance matrix (angstroms):
                    1          2          3          4          5
     1  C    0.000000
     2  C    1.507656   0.000000
     3  C    2.486367   1.352394   0.000000
     4  C    3.876932   2.518164   1.449752   0.000000
     5  C    4.943807   3.737637   2.465998   1.353973   0.000000
     6  C    6.334008   5.032008   3.848623   2.517024   1.461264
     7  C    7.342278   6.154401   4.878784   3.698171   2.418793
     8  C    8.810628   7.575248   6.333393   5.076339   3.867940
     9  C    2.538314   1.507320   2.533553   3.102021   4.454694
    10  C    6.808913   5.359246   4.434139   2.984625   2.544296
    11  H    1.099820   2.163274   3.219247   4.532908   5.631390
    12  H    1.099819   2.163298   3.219286   4.532966   5.631379
    13  H    1.094505   2.169667   2.611769   4.059246   4.888795
    14  H    2.639528   2.089602   1.091180   2.150712   2.653611
    15  H    4.284817   2.790401   2.180418   1.086926   2.107905
    16  H    4.968943   4.020552   2.668202   2.098796   1.091140
    17  H    7.204888   6.183287   4.843932   3.912131   2.558394
    18  H    9.115471   7.779738   6.632489   5.264370   4.228603
    19  H    9.344174   8.158590   6.897414   5.702032   4.466856
    20  H    9.344300   8.158874   6.897646   5.702484   4.467152
    21  H    3.498524   2.185454   2.713478   2.723518   4.036410
    22  H    2.801184   2.156094   3.252360   3.862697   5.188775
    23  H    2.800707   2.156133   3.252840   3.863466   5.189697
    24  H    6.578050   5.112079   4.332795   2.954688   2.834121
    25  H    7.899802   6.450034   5.513394   4.063959   3.479983
    26  H    6.577823   5.111727   4.332639   2.954454   2.834161
                    6          7          8          9         10
     6  C    0.000000
     7  C    1.353027   0.000000
     8  C    2.575324   1.499556   0.000000
     9  C    5.490261   6.761363   8.059994   0.000000
    10  C    1.511413   2.528243   3.139166   5.396308   0.000000
    11  H    6.987198   8.018532   9.471049   2.811601   7.386665
    12  H    6.987195   8.018390   9.470901   2.811509   7.386845
    13  H    6.340107   7.190583   8.686666   3.489040   7.043422
    14  H    4.114841   4.900617   6.398321   3.495389   5.005955
    15  H    2.764411   4.094612   5.299658   2.800873   2.633444
    16  H    2.166444   2.582118   4.076481   5.026105   3.511022
    17  H    2.085090   1.091165   2.187974   7.010201   3.490238
    18  H    2.786761   2.179238   1.092792   8.062967   2.775744
    19  H    3.284715   2.150479   1.099275   8.699203   3.898617
    20  H    3.285352   2.150401   1.099254   8.699663   3.900016
    21  H    4.841961   6.169647   7.364607   1.092150   4.518690
    22  H    6.201997   7.468805   8.749849   1.099357   6.057497
    23  H    6.203022   7.469990   8.751093   1.099338   6.058328
    24  H    2.160850   3.247159   3.893950   5.001141   1.097411
    25  H    2.178117   2.686906   2.724580   6.442208   1.091382
    26  H    2.160896   3.247228   3.894001   5.000404   1.097412
                   11         12         13         14         15
    11  H    0.000000
    12  H    1.759271   0.000000
    13  H    1.775514   1.775502   0.000000
    14  H    3.414878   3.414920   2.292467   0.000000
    15  H    4.840848   4.840974   4.703624   3.105966   0.000000
    16  H    5.690151   5.690088   4.672739   2.388423   3.063731
    17  H    7.904597   7.904354   6.893385   4.621895   4.552532
    18  H    9.744846   9.744558   9.117398   6.866089   5.262104
    19  H    9.932080  10.086529   9.164548   6.886167   5.979418
    20  H   10.086754   9.932148   9.164518   6.886191   5.980149
    21  H    3.819955   3.820165   4.338054   3.793196   2.077637
    22  H    3.161359   2.626355   3.805077   4.130746   3.538948
    23  H    2.625937   3.160363   3.804825   4.131149   3.539671
    24  H    7.008732   7.226841   6.903977   5.014420   2.416856
    25  H    8.471017   8.471164   8.118331   6.038314   3.710134
    26  H    7.226302   7.008732   6.903925   5.014508   2.416272
                   16         17         18         19         20
    16  H    0.000000
    17  H    2.239028   0.000000
    18  H    4.679283   3.110019   0.000000
    19  H    4.550325   2.540782   1.769633   0.000000
    20  H    4.550231   2.539853   1.769639   1.758369   0.000000
    21  H    4.804021   6.569769   7.255168   8.034398   8.035123
    22  H    5.738928   7.718863   8.730057   9.468989   9.304634
    23  H    5.739819   7.720085   8.731483   9.305416   9.470526
    24  H    3.844886   4.127609   3.506129   4.451796   4.788655
    25  H    4.334814   3.767133   2.029835   3.468742   3.470414
    26  H    3.845117   4.127712   3.505506   4.787566   4.453614
                   21         22         23         24         25
    21  H    0.000000
    22  H    1.770228   0.000000
    23  H    1.770230   1.758910   0.000000
    24  H    4.086786   5.770826   5.496328   0.000000
    25  H    5.522229   7.077929   7.078829   1.767539   0.000000
    26  H    4.086087   5.494734   5.770618   1.762669   1.767530
                   26
    26  H    0.000000
 Stoichiometry    C10H16
 Framework group  C1[X(C10H16)]
 Deg. of freedom    72
 Full point group                 C1      NOp   1
 Largest Abelian subgroup         C1      NOp   1
 Largest concise Abelian subgroup C1      NOp   1
                         Standard orientation:                         
 ---------------------------------------------------------------------
 Center     Atomic      Atomic             Coordinates (Angstroms)
 Number     Number       Type             X           Y           Z
 ---------------------------------------------------------------------
      1          6           0        4.186043   -0.985243   -0.000113
      2          6           0        2.965678   -0.099955    0.000017
      3          6           0        1.724259   -0.636470   -0.000213
      4          6           0        0.452578    0.059668   -0.000179
      5          6           0       -0.741079   -0.579413   -0.000205
      6          6           0       -2.064372    0.040415   -0.000137
      7          6           0       -3.152878   -0.763225    0.000253
      8          6           0       -4.604173   -0.385851    0.000427
      9          6           0        3.260391    1.378273    0.000567
     10          6           0       -2.133175    1.550261   -0.000541
     11          1           0        4.817179   -0.791217   -0.879673
     12          1           0        4.817098   -0.791647    0.879598
     13          1           0        3.922096   -2.047445   -0.000374
     14          1           0        1.652379   -1.725280   -0.000493
     15          1           0        0.469127    1.146468   -0.000113
     16          1           0       -0.735417   -1.670538   -0.000304
     17          1           0       -2.968126   -1.838635    0.000440
     18          1           0       -4.773466    0.693748    0.001475
     19          1           0       -5.114894   -0.802710   -0.879231
     20          1           0       -5.115042   -0.804470    0.879137
     21          1           0        2.363003    2.000757    0.000075
     22          1           0        3.859006    1.653716    0.880554
     23          1           0        3.860320    1.654180   -0.878355
     24          1           0       -1.627265    1.964044   -0.882102
     25          1           0       -3.158688    1.923675   -0.000452
     26          1           0       -1.626926    1.964596    0.880567
 ---------------------------------------------------------------------
 Rotational constants (GHZ):           4.0045797           0.4300443           0.3921027
 Standard basis: def2TZVP (5D, 7F)
 There are   456 symmetry adapted cartesian basis functions of A   symmetry.
 There are   406 symmetry adapted basis functions of A   symmetry.
   406 basis functions,   638 primitive gaussians,   456 cartesian basis functions
    38 alpha electrons       38 beta electrons
       nuclear repulsion energy       478.6004483981 Hartrees.
 NAtoms=   26 NActive=   26 NUniq=   26 SFac= 1.00D+00 NAtFMM=   60 NAOKFM=F Big=F
 Integral buffers will be    131072 words long.
 Regular integral format.
 Two-electron integral symmetry is turned on.
 ------------------------------------------------------------------------------
 Polarizable Continuum Model (PCM)
 =================================
 Model                : PCM.
 Atomic radii         : SMD-Coulomb.
 Polarization charges : Total charges.
 Charge compensation  : None.
 Solution method      : On-the-fly selection.
 Cavity type          : VdW (van der Waals Surface) (Alpha=1.000).
 Cavity algorithm     : GePol (No added spheres)
                        Default sphere list used, NSphG=   26.
                        Lebedev-Laikov grids with approx.  5.0 points / Ang**2.
                        Smoothing algorithm: York/Karplus (Gamma=1.0000).
                        Polarization charges: spherical gaussians, with
                                              point-specific exponents (IZeta= 3).
                        Self-potential: point-specific (ISelfS= 7).
                        Self-field    : sphere-specific E.n sum rule (ISelfD= 2).
 Solvent              : Ethanol, Eps=  24.852000 Eps(inf)=   1.852593
 ------------------------------------------------------------------------------
 ------------------------------------------------------------------------------
 Atomic radii for non-electrostatic terms: SMD-CDS.
 ------------------------------------------------------------------------------
 Nuclear repulsion after PCM non-electrostatic terms =      478.5987318692 Hartrees.
 One-electron integrals computed using PRISM.
   1 Symmetry operations used in ECPInt.
 ECPInt:  NShTT=   15225 NPrTT=   44224 LenC2=   13758 LenP2D=   30430.
 LDataN:  DoStor=T MaxTD1= 6 Len=  172
 NBasis=   406 RedAO= T EigKep=  3.93D-05  NBF=   406
 NBsUse=   406 1.00D-06 EigRej= -1.00D+00 NBFU=   406
 ExpMin= 9.52D-02 ExpMax= 1.36D+04 ExpMxC= 4.63D+02 IAcc=3 IRadAn=         5 AccDes= 0.00D+00
 Harris functional with IExCor= 1009 and IRadAn=       5 diagonalized for initial guess.
 HarFok:  IExCor= 1009 AccDes= 0.00D+00 IRadAn=         5 IDoV= 1 UseB2=F ITyADJ=14
 ICtDFT=  3500011 ScaDFX=  1.000000  1.000000  1.000000  1.000000
 FoFCou: FMM=F IPFlag=           0 FMFlag=      100000 FMFlg1=           0
         NFxFlg=           0 DoJE=T BraDBF=F KetDBF=T FulRan=T
         wScrn=  0.000000 ICntrl=       500 IOpCl=  0 I1Cent=   200000004 NGrid=           0
         NMat0=    1 NMatS0=      1 NMatT0=    0 NMatD0=    1 NMtDS0=    0 NMtDT0=    0
 Petite list used in FoFCou.
 Requested convergence on RMS density matrix=1.00D-08 within 128 cycles.
 Requested convergence on MAX density matrix=1.00D-06.
 Requested convergence on             energy=1.00D-06.
 No special actions if energy rises.
 Inv3:  Mode=1 IEnd=    11116875.
 Iteration    1 A*A^-1 deviation from unit magnitude is 3.55D-15 for    460.
 Iteration    1 A*A^-1 deviation from orthogonality  is 2.49D-15 for   1342    412.
 Iteration    1 A^-1*A deviation from unit magnitude is 2.89D-15 for    460.
 Iteration    1 A^-1*A deviation from orthogonality  is 1.72D-15 for   1815    474.
 Error on total polarization charges =  0.05805
 SCF Done:  E(RPBE+HF-PBE) =  -390.358997250     A.U. after   11 cycles
            NFock= 11  Conv=0.76D-08     -V/T= 2.0064
 SMD-CDS (non-electrostatic) energy       (kcal/mol) =      -1.08
 (included in total energy above)
 DoSCS=F DFT=T ScalE2(SS,OS)=  1.000000  1.000000
 ExpMin= 9.52D-02 ExpMax= 1.36D+04 ExpMxC= 4.63D+02 IAcc=3 IRadAn=         5 AccDes= 0.00D+00
 HarFok:  IExCor=  205 AccDes= 0.00D+00 IRadAn=         5 IDoV=-2 UseB2=F ITyADJ=14
 ICtDFT= 12500011 ScaDFX=  1.000000  1.000000  1.000000  1.000000
 Range of M.O.s used for correlation:    11   406
 NBasis=   406 NAE=    38 NBE=    38 NFC=    10 NFV=     0
 NROrb=    396 NOA=    28 NOB=    28 NVA=   368 NVB=   368

 **** Warning!!: The largest alpha MO coefficient is  0.36854718D+02

 NEqPCM:  Using non-equilibrium solvation (IEInf=1, Eps=  24.8520, EpsInf=   1.8526)
 Inv3:  Mode=1 IEnd=    11116875.
 Iteration    1 A*A^-1 deviation from unit magnitude is 3.66D-15 for    120.
 Iteration    1 A*A^-1 deviation from orthogonality  is 2.50D-15 for   1342    412.
 Iteration    1 A^-1*A deviation from unit magnitude is 3.66D-15 for    120.
 Iteration    1 A^-1*A deviation from orthogonality  is 1.41D-15 for   1587    775.
 Orbital symmetries:
       Occupied  (A) (A) (A) (A) (A) (A) (A) (A) (A) (A) (A) (A)
                 (A) (A) (A) (A) (A) (A) (A) (A) (A) (A) (A) (A)
                 (A) (A) (A) (A) (A) (A) (A) (A) (A) (A) (A) (A)
                 (A) (A)
       Virtual   (A) (A) (A) (A) (A) (A) (A) (A) (A) (A) (A) (A)
                 (A) (A) (A) (A) (A) (A) (A) (A) (A) (A) (A) (A)
                 (A) (A) (A) (A) (A) (A) (A) (A) (A) (A) (A) (A)
                 (A) (A) (A) (A) (A) (A) (A) (A) (A) (A) (A) (A)
                 (A) (A) (A) (A) (A) (A) (A) (A) (A) (A) (A) (A)
                 (A) (A) (A) (A) (A) (A) (A) (A) (A) (A) (A) (A)
                 (A) (A) (A) (A) (A) (A) (A) (A) (A) (A) (A) (A)
                 (A) (A) (A) (A) (A) (A) (A) (A) (A) (A) (A) (A)
                 (A) (A) (A) (A) (A) (A) (A) (A) (A) (A) (A) (A)
                 (A) (A) (A) (A) (A) (A) (A) (A) (A) (A) (A) (A)
                 (A) (A) (A) (A) (A) (A) (A) (A) (A) (A) (A) (A)
                 (A) (A) (A) (A) (A) (A) (A) (A) (A) (A) (A) (A)
                 (A) (A) (A) (A) (A) (A) (A) (A) (A) (A) (A) (A)
                 (A) (A) (A) (A) (A) (A) (A) (A) (A) (A) (A) (A)
                 (A) (A) (A) (A) (A) (A) (A) (A) (A) (A) (A) (A)
                 (A) (A) (A) (A) (A) (A) (A) (A) (A) (A) (A) (A)
                 (A) (A) (A) (A) (A) (A) (A) (A) (A) (A) (A) (A)
                 (A) (A) (A) (A) (A) (A) (A) (A) (A) (A) (A) (A)
                 (A) (A) (A) (A) (A) (A) (A) (A) (A) (A) (A) (A)
                 (A) (A) (A) (A) (A) (A) (A) (A) (A) (A) (A) (A)
                 (A) (A) (A) (A) (A) (A) (A) (A) (A) (A) (A) (A)
                 (A) (A) (A) (A) (A) (A) (A) (A) (A) (A) (A) (A)
                 (A) (A) (A) (A) (A) (A) (A) (A) (A) (A) (A) (A)
                 (A) (A) (A) (A) (A) (A) (A) (A) (A) (A) (A) (A)
                 (A) (A) (A) (A) (A) (A) (A) (A) (A) (A) (A) (A)
                 (A) (A) (A) (A) (A) (A) (A) (A) (A) (A) (A) (A)
                 (A) (A) (A) (A) (A) (A) (A) (A) (A) (A) (A) (A)
                 (A) (A) (A) (A) (A) (A) (A) (A) (A) (A) (A) (A)
                 (A) (A) (A) (A) (A) (A) (A) (A) (A) (A) (A) (A)
                 (A) (A) (A) (A) (A) (A) (A) (A) (A) (A) (A) (A)
                 (A) (A) (A) (A) (A) (A) (A) (A)
   200 initial guesses have been made.
 Convergence on wavefunction:    0.001000000000000
 Iteration     1 Dimension   200 NMult     0 NNew    200
 CISAX will form   200 AO SS matrices at one time.
 New state      3 was old state      4
 New state      4 was old state      5
 New state      5 was old state      6
 New state      6 was old state      7
 New state      7 was old state     10
 New state      8 was old state      3
 New state      9 was old state     13
 New state     10 was old state      8
 New state     12 was old state     18
 New state     13 was old state     12
 New state     15 was old state     22
 New state     16 was old state      9
 New state     17 was old state     16
 New state     18 was old state     17
 New state     19 was old state     24
 New state     20 was old state     19
 New state     21 was old state     26
 New state     22 was old state     15
 New state     23 was old state     20
 New state     24 was old state     21
 New state     26 was old state     27
 New state     27 was old state     23
 New state     28 was old state     31
 New state     29 was old state     28
 New state     31 was old state     29
 New state     32 was old state     33
 New state     33 was old state     41
 New state     34 was old state     35
 New state     35 was old state     32
 New state     36 was old state     46
 New state     37 was old state     34
 New state     38 was old state     36
 New state     39 was old state     51
 New state     40 was old state     37
 New state     41 was old state     38
 New state     42 was old state     40
 New state     43 was old state     39
 New state     44 was old state     43
 New state     45 was old state     44
 New state     46 was old state     42
 New state     47 was old state     50
 New state     48 was old state     55
 New state     49 was old state     47
 New state     50 was old state     45
 Iteration     2 Dimension   300 NMult   200 NNew    100
 New state      4 was old state      8
 New state      5 was old state      4
 New state      6 was old state      5
 New state      7 was old state      6
 New state      8 was old state      7
 New state     11 was old state     16
 New state     12 was old state     11
 New state     13 was old state     12
 New state     14 was old state     13
 New state     16 was old state     14
 New state     18 was old state     22
 New state     20 was old state     18
 New state     21 was old state     20
 New state     22 was old state     21
 New state     25 was old state     27
 New state     26 was old state     25
 New state     27 was old state     26
 New state     30 was old state     31
 New state     31 was old state     30
 New state     37 was old state     38
 New state     38 was old state     37
 New state     41 was old state     42
 New state     42 was old state     41
 New state     46 was old state     47
 New state     47 was old state     46
 New state     49 was old state     51
 New state     50 was old state     49
 Iteration     3 Dimension   400 NMult   300 NNew    100
 New state     29 was old state     30
 New state     30 was old state     29
 New state     44 was old state     45
 New state     45 was old state     44
 Iteration     4 Dimension   488 NMult   400 NNew     88
 New state     48 was old state     49
 New state     49 was old state     48
 Iteration     5 Dimension   504 NMult   488 NNew     16
 Iteration     6 Dimension   510 NMult   504 NNew      6
 Iteration     7 Dimension   514 NMult   510 NNew      4
 ***********************************************************************
 Excited states from <AA,BB:AA,BB> singles matrix:
 ***********************************************************************
 
 Ground to excited state transition densities written to RWF  633
 Ground to excited state transition electric dipole moments (Au):
       state          X           Y           Z        Dip. S.      Osc.
         1         3.6703      0.5740      0.0000     13.8003      1.4876
         2         0.2195      0.1050     -0.0001      0.0592      0.0087
         3        -0.0005      0.0007     -0.2345      0.0550      0.0087
         4         0.2126     -0.2409     -0.0002      0.1032      0.0165
         5        -0.0001      0.0002      0.0263      0.0007      0.0001
         6         0.0005      0.0002      0.0370      0.0014      0.0002
         7         0.1770      0.2332     -0.0001      0.0857      0.0146
         8         0.0005      0.0005     -0.0117      0.0001      0.0000
         9         0.0000     -0.0000     -0.0021      0.0000      0.0000
        10        -0.0000      0.0001     -0.0169      0.0003      0.0001
        11         0.1975      0.2751      0.0001      0.1147      0.0216
        12         0.0006      0.0005     -0.0126      0.0002      0.0000
        13        -0.0007     -0.0008      0.0400      0.0016      0.0003
        14        -0.0001      0.0001     -0.0302      0.0009      0.0002
        15        -0.0003     -0.0002      0.0202      0.0004      0.0001
        16         0.0000     -0.0004     -0.0300      0.0009      0.0002
        17        -0.0008     -0.0006      0.0371      0.0014      0.0003
        18        -0.7705     -0.9445      0.0002      1.4858      0.3065
        19        -0.0006     -0.0009     -0.1275      0.0162      0.0034
        20        -0.0002     -0.0008     -0.1129      0.0127      0.0027
        21        -0.3781      0.1360     -0.0002      0.1614      0.0342
        22        -0.0000     -0.0001     -0.0823      0.0068      0.0014
        23         0.2852      0.0425      0.0002      0.0831      0.0179
        24        -0.0003      0.0003      0.0283      0.0008      0.0002
        25        -0.1202     -0.0879     -0.0006      0.0222      0.0049
        26         0.0010      0.0001      0.0026      0.0000      0.0000
        27         0.0011     -0.0001     -0.1361      0.0185      0.0041
        28         0.0003      0.0004     -0.2003      0.0401      0.0089
        29        -0.0407      0.2950      0.0022      0.0887      0.0198
        30        -0.0019      0.0158     -0.0514      0.0029      0.0006
        31        -0.2214      0.4419      0.0003      0.2443      0.0555
        32        -0.0001      0.0011     -0.1404      0.0197      0.0045
        33         0.0002     -0.0000     -0.0537      0.0029      0.0007
        34        -0.0003      0.0008      0.1340      0.0180      0.0042
        35         0.0000     -0.0003     -0.0428      0.0018      0.0004
        36         0.0001      0.0004     -0.0399      0.0016      0.0004
        37        -0.0005      0.0009     -0.1490      0.0222      0.0053
        38        -0.2087      0.4130     -0.0006      0.2142      0.0511
        39        -0.0015      0.0027      0.0858      0.0074      0.0018
        40        -0.3326      0.2074     -0.0005      0.1537      0.0368
        41        -0.1341      0.1006      0.0003      0.0281      0.0068
        42        -0.0004      0.0006      0.1351      0.0183      0.0044
        43         0.0000      0.0001      0.0479      0.0023      0.0006
        44         0.3365     -0.3390      0.0030      0.2281      0.0560
        45        -0.0039      0.0041      0.2714      0.0737      0.0181
        46        -0.0631      0.0773      0.0003      0.0100      0.0025
        47        -0.0005     -0.0001     -0.0193      0.0004      0.0001
        48        -0.0233     -0.0924      0.0041      0.0091      0.0023
        49         0.0054      0.0220      0.0265      0.0012      0.0003
        50        -0.0004      0.0005      0.0274      0.0007      0.0002
 Ground to excited state transition velocity dipole moments (Au):
       state          X           Y           Z        Dip. S.      Osc.
         1        -0.5894     -0.0930     -0.0000      0.3560      1.4678
         2        -0.0472     -0.0238      0.0000      0.0028      0.0084
         3         0.0001     -0.0002      0.0605      0.0037      0.0102
         4        -0.0515      0.0569      0.0001      0.0059      0.0164
         5         0.0000     -0.0000     -0.0063      0.0000      0.0001
         6        -0.0001     -0.0001     -0.0055      0.0000      0.0001
         7        -0.0466     -0.0588      0.0000      0.0056      0.0147
         8        -0.0001     -0.0001      0.0037      0.0000      0.0000
         9        -0.0000      0.0000      0.0007      0.0000      0.0000
        10         0.0000     -0.0000      0.0079      0.0001      0.0002
        11        -0.0553     -0.0767     -0.0000      0.0089      0.0211
        12        -0.0002     -0.0001      0.0038      0.0000      0.0000
        13         0.0002      0.0002     -0.0130      0.0002      0.0004
        14         0.0000     -0.0000      0.0097      0.0001      0.0002
        15         0.0001      0.0000     -0.0056      0.0000      0.0001
        16        -0.0000      0.0001      0.0100      0.0001      0.0002
        17         0.0003      0.0002     -0.0088      0.0001      0.0002
        18         0.2353      0.2912     -0.0000      0.1402      0.3020
        19         0.0002      0.0003      0.0389      0.0015      0.0033
        20         0.0001      0.0003      0.0387      0.0015      0.0032
        21         0.1210     -0.0401      0.0001      0.0163      0.0341
        22         0.0000      0.0000      0.0255      0.0006      0.0014
        23        -0.0951     -0.0142     -0.0001      0.0092      0.0191
        24         0.0001     -0.0001     -0.0026      0.0000      0.0000
        25         0.0409      0.0274      0.0002      0.0024      0.0049
        26        -0.0003     -0.0000      0.0004      0.0000      0.0000
        27        -0.0004      0.0000      0.0501      0.0025      0.0050
        28        -0.0001     -0.0001      0.0688      0.0047      0.0095
        29         0.0106     -0.0958     -0.0006      0.0093      0.0185
        30         0.0005     -0.0051      0.0145      0.0002      0.0005
        31         0.0752     -0.1488     -0.0001      0.0278      0.0544
        32         0.0000     -0.0004      0.0473      0.0022      0.0043
        33        -0.0001      0.0000      0.0152      0.0002      0.0004
        34         0.0001     -0.0003     -0.0435      0.0019      0.0036
        35         0.0000      0.0001      0.0101      0.0001      0.0002
        36        -0.0000     -0.0001      0.0140      0.0002      0.0004
        37         0.0002     -0.0003      0.0491      0.0024      0.0045
        38         0.0731     -0.1426      0.0002      0.0257      0.0479
        39         0.0005     -0.0009     -0.0281      0.0008      0.0015
        40         0.1180     -0.0729      0.0002      0.0192      0.0357
        41         0.0456     -0.0336     -0.0001      0.0032      0.0059
        42         0.0001     -0.0002     -0.0406      0.0016      0.0030
        43        -0.0000     -0.0000     -0.0135      0.0002      0.0003
        44        -0.1244      0.1244     -0.0010      0.0310      0.0561
        45         0.0014     -0.0015     -0.0934      0.0087      0.0158
        46         0.0223     -0.0295     -0.0001      0.0014      0.0024
        47         0.0002      0.0001      0.0141      0.0002      0.0004
        48         0.0032      0.0374     -0.0016      0.0014      0.0025
        49        -0.0007     -0.0089     -0.0101      0.0002      0.0003
        50         0.0002     -0.0002     -0.0093      0.0001      0.0002
 Ground to excited state transition magnetic dipole moments (Au):
       state          X           Y           Z
         1         0.0001      0.0004     -0.3754
         2        -0.0001     -0.0001     -0.1177
         3         0.3599     -0.1921      0.0028
         4         0.0010      0.0001     -1.1101
         5         0.0446      0.6162      0.0004
         6         0.0145      0.0784     -0.0002
         7         0.0004      0.0002     -0.0627
         8        -0.2204     -0.2899     -0.0002
         9         0.0778      0.1116     -0.0004
        10        -0.0088      0.0473      0.0004
        11         0.0000      0.0027      0.0035
        12         0.1342     -0.3983      0.0008
        13        -0.1163      0.7131      0.0001
        14        -0.2851     -0.5671      0.0005
        15         1.5498     -0.2249     -0.0000
        16         0.7109     -0.2526     -0.0003
        17         0.1241      0.3958      0.0009
        18        -0.0002     -0.0004     -0.4001
        19        -0.0410     -0.5290     -0.0005
        20         0.4751      0.2966     -0.0006
        21         0.0001      0.0006     -0.0647
        22        -0.1474     -0.0782     -0.0003
        23        -0.0001     -0.0005     -0.0294
        24         0.4158     -0.3485      0.0001
        25         0.0003      0.0002      0.6261
        26        -0.1120      0.3670     -0.0033
        27         0.0884      0.0122     -0.0049
        28        -0.1017      0.2914      0.0010
        29        -0.0034      0.0543      1.1194
        30         0.0611     -1.0026      0.0587
        31        -0.0001      0.0006     -0.9386
        32        -0.0217     -0.7515      0.0015
        33        -0.4293      0.0947     -0.0010
        34        -0.2957      0.2723     -0.0001
        35        -0.9026      0.6576     -0.0000
        36         0.3156      0.5883      0.0010
        37        -0.7089     -0.6334     -0.0018
        38         0.0055      0.0043     -0.2176
        39        -1.0475     -0.5637      0.0005
        40         0.0002      0.0020      0.5816
        41         0.0008      0.0032     -0.4154
        42         0.7428      0.4281      0.0001
        43         0.6518     -0.0735      0.0009
        44         0.0018      0.0087      1.4757
        45         0.2418      0.8130     -0.0163
        46         0.0006      0.0016     -0.3152
        47         0.0440      0.2616     -0.0021
        48         0.0007     -0.0041     -0.0844
        49         0.0063     -0.0031      0.0200
        50        -0.0786      0.1400      0.0001
 Ground to excited state transition velocity quadrupole moments (Au):
       state          XX          YY          ZZ          XY          XZ          YZ
         1         0.0856     -0.0183     -0.0102      0.4317     -0.0002     -0.0001
         2         1.5190      0.0049     -0.0156      0.1667     -0.0000     -0.0000
         3         0.0130      0.0000      0.0001      0.0029      0.2166      0.2444
         4        -4.7325      0.0073     -0.0165     -1.0603      0.0002      0.0005
         5         0.0017      0.0002     -0.0004      0.0006     -0.5729     -0.0253
         6        -0.0017      0.0001     -0.0000     -0.0002     -0.0621     -0.0162
         7        -0.0078     -0.0814      0.0113     -0.0200      0.0000      0.0001
         8        -0.0015     -0.0002     -0.0000     -0.0002      0.0932     -0.0627
         9        -0.0004      0.0003     -0.0002     -0.0003      0.0068     -0.0164
        10         0.0001      0.0002      0.0001      0.0003     -0.0381     -0.1165
        11        -0.4106     -0.3504      0.0012      0.1274     -0.0017     -0.0003
        12         0.0009     -0.0007      0.0003      0.0009      0.2978      0.0999
        13         0.0009      0.0010      0.0001     -0.0001     -0.4037     -0.0715
        14        -0.0002      0.0002     -0.0004      0.0003      0.2804     -0.0615
        15         0.0003      0.0001     -0.0000     -0.0002      0.2242      0.2704
        16        -0.0034      0.0002      0.0000     -0.0005      0.0859      0.2791
        17        -0.0012      0.0003     -0.0000      0.0003     -0.3630      0.1697
        18        -0.1581      0.2985      0.0274     -0.5299      0.0006     -0.0004
        19        -0.0008      0.0002      0.0003     -0.0005      0.2715     -0.0579
        20         0.0013      0.0007     -0.0002     -0.0002     -0.2171      0.3696
        21        -2.6634     -0.0684     -0.2175     -0.3492     -0.0000     -0.0000
        22         0.0009      0.0000      0.0001      0.0002      0.2132     -0.1194
        23        -0.6335     -0.0043     -0.1325     -0.1188      0.0001      0.0002
        24         0.0007     -0.0004      0.0001      0.0001      0.3096      0.3428
        25        -0.0749      0.0493      0.0975      0.7179      0.0003     -0.0005
        26         0.0015     -0.0000     -0.0005     -0.0036     -0.3036     -0.1760
        27        -0.0035      0.0008     -0.0003     -0.0048      0.1023     -0.0611
        28         0.0000      0.0002     -0.0001      0.0011     -0.2248     -0.0211
        29         1.8081     -0.3915     -0.0372      1.0710     -0.0477     -0.0107
        30         0.0982     -0.0210     -0.0019      0.0559      0.8855      0.1938
        31         1.1896     -0.2882     -0.0048     -1.4040     -0.0007     -0.0004
        32         0.0043     -0.0008      0.0001      0.0002      0.6200      0.0879
        33        -0.0008      0.0002     -0.0001     -0.0005      0.0972     -0.0607
        34         0.0034     -0.0005     -0.0001     -0.0010      0.0715     -0.2918
        35         0.0010     -0.0000      0.0001     -0.0003     -0.4298     -0.3711
        36        -0.0003     -0.0001      0.0000      0.0010     -0.5363     -0.0379
        37         0.0017     -0.0004      0.0001     -0.0048     -0.0063     -0.1800
        38         1.6169     -0.3661      0.0345     -1.2461     -0.0016      0.0007
        39         0.0048     -0.0023      0.0002     -0.0058      0.1620     -0.2231
        40        -1.1506     -0.2045     -0.0655     -0.0266     -0.0015     -0.0000
        41        -1.8007      0.1664      0.0561     -0.5850     -0.0019     -0.0001
        42         0.0017     -0.0008      0.0000     -0.0022     -0.0762      0.3814
        43        -0.0024      0.0004     -0.0003      0.0003      0.0811      0.4709
        44        -0.9887      0.0594     -0.0197      0.7183     -0.0063      0.0022
        45         0.0163     -0.0022      0.0008     -0.0072     -0.5917      0.2426
        46         0.4900      0.1539      0.0689     -0.7090     -0.0006     -0.0003
        47         0.0012     -0.0000      0.0002      0.0001     -0.2554      0.0980
        48         0.2050     -0.1068      0.1610      0.0923     -0.1098      0.0235
        49        -0.0474      0.0245     -0.0376     -0.0230     -0.4758      0.1025
        50        -0.0013      0.0002     -0.0001     -0.0002     -0.0628     -0.3554
 <0|del|b> * <b|rxdel|0> + <0|del|b> * <b|delr+rdel|0>
 Rotatory Strengths (R) in cgs (10**-40 erg-esu-cm/Gauss)
       state          XX          YY          ZZ    R(velocity)    E-M Angle
         1        -0.1054      0.0793     -0.2636     -0.0966       90.00
         2         0.0054     -0.0066      0.0073      0.0020       90.00
         3         0.6169      0.1024      0.0155      0.2449       89.42
         4        -0.1849     -0.1199     -0.0081     -0.1043       90.07
         5        -0.0903      0.0025      0.0008     -0.0290       90.00
         6        -0.0090      0.0002     -0.0065     -0.0051       90.00
         7        -0.0115     -0.0327     -0.0347     -0.0263       90.00
         8         0.0628      0.0524      0.0625      0.0592       90.00
         9         0.0005     -0.0006      0.0006      0.0002       90.00
        10         0.0047      0.0005      0.0002      0.0018       90.00
        11        -0.4267      0.0299     -0.1152     -0.1707      119.59
        12         0.1290     -0.0494      0.0103      0.0300       90.00
        13         0.2916     -0.0472      0.0703      0.1049       89.22
        14         0.0307     -0.0102     -0.0009      0.0065       90.00
        15        -0.0218      0.1783      0.1264      0.0943       89.22
        16        -0.0631     -0.0033     -0.0286     -0.0317       90.00
        17         0.1367      0.0848     -0.0077      0.0713       90.00
        18        -0.2771     -0.1684      0.1087     -0.1123       90.06
        19        -0.2839     -0.0200     -0.0740     -0.1260       90.46
        20         0.1178      0.0511      0.0317      0.0669       90.00
        21        -0.0554      0.0241     -0.0108     -0.0140       90.00
        22        -0.0178     -0.0173      0.0060     -0.0097       90.00
        23         0.0198     -0.0182      0.0452      0.0156       90.00
        24         0.0588      0.0675      0.0100      0.0455       90.00
        25         0.3144     -0.0333      0.0499      0.1104       89.71
        26        -0.0120      0.1009     -0.0233      0.0219       90.00
        27        -0.5204     -0.0139     -0.0544     -0.1962       93.53
        28         0.0849     -0.0007     -0.0014      0.0276       90.00
        29       -11.6758     -0.1882     -0.5813     -4.1484       93.13
        30        11.9659      0.1680      0.5687      4.2342       67.06
        31         0.0406     -0.0895      0.0399     -0.0030       90.00
        32         0.5988      0.0628      0.0470      0.2362       89.44
        33        -0.0222      0.0283      0.0284      0.0115       90.00
        34        -0.0107     -0.1025     -0.0961     -0.0698       90.34
        35         0.1167      0.0021      0.0251      0.0480       90.00
        36        -0.1243     -0.0130     -0.0237     -0.0537       90.00
        37        -0.1295     -0.0232      0.0942     -0.0195       90.00
        38        -1.0910      0.6352     -0.0244     -0.1601       90.40
        39         0.8221     -0.8243     -0.0483     -0.0168       90.00
        40        -0.1544      0.1232     -0.0113     -0.0142       90.00
        41        -0.0696      0.0171     -0.0011     -0.0179       90.00
        42        -0.0251      0.0617     -0.0243      0.0041       90.00
        43        -0.0124     -0.0142     -0.0012     -0.0093       90.00
        44        -0.3584     -1.2229      0.3321     -0.4164       90.14
        45         0.1057      1.4738     -0.3159      0.4212       89.52
        46         0.0506     -0.0382     -0.0076      0.0016       90.00
        47        -0.0013     -0.0072     -0.0084     -0.0056       90.00
        48         3.7072      0.3441     -4.0763     -0.0083       90.00
        49        -3.9207     -0.4845      4.0676     -0.1125      128.93
        50        -0.0340     -0.0707      0.0301     -0.0249       90.00
 1/2[<0|r|b>*<b|rxdel|0> + (<0|rxdel|b>*<b|r|0>)*]
 Rotatory Strengths (R) in cgs (10**-40 erg-esu-cm/Gauss)
       state          XX          YY          ZZ     R(length)
         1        -0.1651     -0.1440      0.0103     -0.0996
         2         0.0082      0.0070     -0.0078      0.0025
         3         0.1295      0.0966      0.4632      0.2298
         4        -0.1471      0.0142     -0.1449     -0.0926
         5         0.0042     -0.0942     -0.0083     -0.0328
         6        -0.0049     -0.0135      0.0055     -0.0043
         7        -0.0487     -0.0267     -0.0035     -0.0263
         8         0.0780      0.0998     -0.0018      0.0587
         9        -0.0007      0.0023     -0.0006      0.0003
        10        -0.0000     -0.0026      0.0046      0.0006
        11        -0.0018     -0.5168     -0.0003     -0.1730
        12        -0.0546      0.1412      0.0069      0.0311
        13        -0.0545      0.3816     -0.0030      0.1080
        14        -0.0183      0.0248      0.0109      0.0058
        15         0.3094     -0.0246      0.0001      0.0949
        16        -0.0172     -0.0797     -0.0070     -0.0346
        17         0.0729      0.1647     -0.0249      0.0709
        18        -0.1227     -0.2622      0.0511     -0.1113
        19        -0.0174     -0.3188     -0.0433     -0.1265
        20         0.0773      0.1749     -0.0449      0.0691
        21         0.0202     -0.0580     -0.0083     -0.0153
        22        -0.0048     -0.0072     -0.0173     -0.0098
        23         0.0266      0.0144      0.0044      0.0151
        24         0.0820      0.0667     -0.0026      0.0487
        25         0.0221      0.0139      0.2539      0.0966
        26         0.0775     -0.0153      0.0059      0.0227
        27        -0.0706      0.0010     -0.4694     -0.1797
        28         0.0181     -0.0736      0.1352      0.0266
        29        -0.0985    -11.3224     -1.7536     -4.3915
        30         0.0800     11.2053      2.1337      4.4730
        31        -0.0106     -0.2027      0.2010     -0.0041
        32        -0.0009      0.5671      0.1457      0.2373
        33         0.0645      0.0003     -0.0373      0.0092
        34        -0.0625     -0.1540      0.0063     -0.0701
        35         0.0031      0.1474     -0.0015      0.0497
        36        -0.0322     -0.1570      0.0288     -0.0534
        37        -0.2713      0.3913     -0.1898     -0.0233
        38         0.8183     -1.2453     -0.0886     -0.1718
        39        -1.1069      1.0790     -0.0291     -0.0190
        40         0.0474     -0.2928      0.2122     -0.0111
        41         0.0775     -0.2254      0.0859     -0.0207
        42         0.2019     -0.1939     -0.0131     -0.0017
        43        -0.0226      0.0030     -0.0317     -0.0171
        44        -0.4382      2.0921     -3.0800     -0.4753
        45         0.6667     -2.3435      3.1198      0.4810
        46         0.0273     -0.0894      0.0730      0.0036
        47         0.0155      0.0238     -0.0292      0.0034
        48         0.0109     -0.2680      0.2436     -0.0045
        49        -0.0242      0.0479     -0.3746     -0.1170
        50        -0.0246     -0.0487     -0.0012     -0.0248
  1/2[<0|del|b>*<b|r|0> + (<0|r|b>*<b|del|0>)*] (Au)
       state          X           Y           Z        Dip. S.   Osc.(frdel)
         1        -2.1631     -0.0534     -0.0000      2.2165      1.4777
         2        -0.0104     -0.0025     -0.0000      0.0129      0.0086
         3        -0.0000     -0.0000     -0.0142      0.0142      0.0095
         4        -0.0109     -0.0137     -0.0000      0.0247      0.0164
         5        -0.0000     -0.0000     -0.0002      0.0002      0.0001
         6        -0.0000     -0.0000     -0.0002      0.0002      0.0001
         7        -0.0082     -0.0137     -0.0000      0.0220      0.0146
         8        -0.0000     -0.0000     -0.0000      0.0000      0.0000
         9        -0.0000     -0.0000     -0.0000      0.0000      0.0000
        10        -0.0000     -0.0000     -0.0001      0.0001      0.0001
        11        -0.0109     -0.0211     -0.0000      0.0320      0.0213
        12        -0.0000     -0.0000     -0.0000      0.0000      0.0000
        13        -0.0000     -0.0000     -0.0005      0.0005      0.0003
        14        -0.0000     -0.0000     -0.0003      0.0003      0.0002
        15        -0.0000     -0.0000     -0.0001      0.0001      0.0001
        16        -0.0000     -0.0000     -0.0003      0.0003      0.0002
        17        -0.0000     -0.0000     -0.0003      0.0003      0.0002
        18        -0.1813     -0.2750     -0.0000      0.4563      0.3042
        19        -0.0000     -0.0000     -0.0050      0.0050      0.0033
        20        -0.0000     -0.0000     -0.0044      0.0044      0.0029
        21        -0.0458     -0.0055     -0.0000      0.0512      0.0341
        22        -0.0000     -0.0000     -0.0021      0.0021      0.0014
        23        -0.0271     -0.0006     -0.0000      0.0277      0.0185
        24        -0.0000     -0.0000     -0.0001      0.0001      0.0000
        25        -0.0049     -0.0024     -0.0000      0.0073      0.0049
        26        -0.0000     -0.0000      0.0000     -0.0000     -0.0000
        27        -0.0000     -0.0000     -0.0068      0.0068      0.0045
        28        -0.0000     -0.0000     -0.0138      0.0138      0.0092
        29        -0.0004     -0.0283     -0.0000      0.0287      0.0191
        30        -0.0000     -0.0001     -0.0007      0.0008      0.0006
        31        -0.0167     -0.0658     -0.0000      0.0824      0.0549
        32        -0.0000     -0.0000     -0.0066      0.0066      0.0044
        33        -0.0000     -0.0000     -0.0008      0.0008      0.0005
        34        -0.0000     -0.0000     -0.0058      0.0058      0.0039
        35         0.0000     -0.0000     -0.0004      0.0004      0.0003
        36        -0.0000     -0.0000     -0.0006      0.0006      0.0004
        37        -0.0000     -0.0000     -0.0073      0.0073      0.0049
        38        -0.0153     -0.0589     -0.0000      0.0742      0.0494
        39        -0.0000     -0.0000     -0.0024      0.0024      0.0016
        40        -0.0393     -0.0151     -0.0000      0.0544      0.0363
        41        -0.0061     -0.0034     -0.0000      0.0095      0.0063
        42        -0.0000     -0.0000     -0.0055      0.0055      0.0037
        43        -0.0000     -0.0000     -0.0006      0.0006      0.0004
        44        -0.0419     -0.0422     -0.0000      0.0840      0.0560
        45        -0.0000     -0.0000     -0.0254      0.0254      0.0169
        46        -0.0014     -0.0023     -0.0000      0.0037      0.0025
        47        -0.0000     -0.0000     -0.0003      0.0003      0.0002
        48        -0.0001     -0.0035     -0.0000      0.0035      0.0024
        49        -0.0000     -0.0002     -0.0003      0.0005      0.0003
        50        -0.0000     -0.0000     -0.0003      0.0003      0.0002

 Excitation energies and oscillator strengths:
 
 Excited State   1:      Singlet-A      4.4000 eV  281.78 nm  f=1.4876  <S**2>=0.000
      38 -> 39         0.70596
 This state for optimization and/or second-order correction.
 Total Energy, E(TD-HF/TD-DFT) =  -390.197300773    
 Copying the excited state density for this state as the 1-particle RhoCI density.
 
 Excited State   2:      Singlet-A      6.0180 eV  206.02 nm  f=0.0087  <S**2>=0.000
      37 -> 39         0.62299
      38 -> 40         0.32027
 
 Excited State   3:      Singlet-A      6.4928 eV  190.96 nm  f=0.0087  <S**2>=0.000
      38 -> 41         0.69057
 
 Excited State   4:      Singlet-A      6.5170 eV  190.25 nm  f=0.0165  <S**2>=0.000
      37 -> 39        -0.32032
      38 -> 40         0.62260
 
 Excited State   5:      Singlet-A      6.7587 eV  183.44 nm  f=0.0001  <S**2>=0.000
      37 -> 41         0.12448
      38 -> 42         0.68081
 
 Excited State   6:      Singlet-A      6.8489 eV  181.03 nm  f=0.0002  <S**2>=0.000
      35 -> 39        -0.12237
      38 -> 43         0.65125
      38 -> 45        -0.20734
 
 Excited State   7:      Singlet-A      6.9721 eV  177.83 nm  f=0.0146  <S**2>=0.000
      36 -> 39        -0.22141
      38 -> 44         0.66629
 
 Excited State   8:      Singlet-A      6.9994 eV  177.14 nm  f=0.0000  <S**2>=0.000
      35 -> 39         0.67525
      38 -> 43         0.12520
 
 Excited State   9:      Singlet-A      7.4468 eV  166.49 nm  f=0.0000  <S**2>=0.000
      34 -> 39         0.64636
      35 -> 40         0.14729
      38 -> 45         0.15892
 
 Excited State  10:      Singlet-A      7.5249 eV  164.77 nm  f=0.0001  <S**2>=0.000
      34 -> 39        -0.17421
      38 -> 43         0.19058
      38 -> 45         0.62307
      38 -> 47         0.11005
 
 Excited State  11:      Singlet-A      7.6899 eV  161.23 nm  f=0.0216  <S**2>=0.000
      36 -> 39         0.65949
      37 -> 40        -0.10004
      38 -> 44         0.20762
 
 Excited State  12:      Singlet-A      7.7697 eV  159.57 nm  f=0.0000  <S**2>=0.000
      37 -> 43         0.12124
      38 -> 45        -0.10125
      38 -> 46         0.54657
      38 -> 47         0.36243
      38 -> 49        -0.12880
 
 Excited State  13:      Singlet-A      7.7904 eV  159.15 nm  f=0.0003  <S**2>=0.000
      30 -> 39        -0.15262
      32 -> 39         0.26782
      33 -> 39         0.59210
 
 Excited State  14:      Singlet-A      7.9462 eV  156.03 nm  f=0.0002  <S**2>=0.000
      38 -> 46        -0.32158
      38 -> 47         0.52173
      38 -> 48         0.17163
      38 -> 49         0.20587
 
 Excited State  15:      Singlet-A      8.0900 eV  153.26 nm  f=0.0001  <S**2>=0.000
      30 -> 39        -0.27803
      32 -> 39         0.48278
      33 -> 39        -0.28843
      34 -> 40        -0.15355
      38 -> 47         0.12390
      38 -> 48        -0.11838
 
 Excited State  16:      Singlet-A      8.1375 eV  152.36 nm  f=0.0002  <S**2>=0.000
      32 -> 39         0.11858
      38 -> 46         0.15365
      38 -> 47        -0.15102
      38 -> 48         0.58252
      38 -> 49         0.22903
 
 Excited State  17:      Singlet-A      8.2844 eV  149.66 nm  f=0.0003  <S**2>=0.000
      37 -> 47         0.11000
      38 -> 46         0.18257
      38 -> 48        -0.27955
      38 -> 49         0.59035
 
 Excited State  18:      Singlet-A      8.4200 eV  147.25 nm  f=0.3065  <S**2>=0.000
      37 -> 40         0.68607
 
 Excited State  19:      Singlet-A      8.4543 eV  146.65 nm  f=0.0034  <S**2>=0.000
      28 -> 39         0.12336
      31 -> 39         0.61283
      32 -> 39        -0.13954
      33 -> 40        -0.18019
      37 -> 41        -0.10737
 
 Excited State  20:      Singlet-A      8.5215 eV  145.50 nm  f=0.0027  <S**2>=0.000
      31 -> 39         0.10818
      37 -> 41         0.60303
      37 -> 42         0.24651
      38 -> 42        -0.11197
 
 Excited State  21:      Singlet-A      8.6587 eV  143.19 nm  f=0.0342  <S**2>=0.000
      37 -> 50         0.10568
      38 -> 50         0.67410
      38 -> 52        -0.14447
 
 Excited State  22:      Singlet-A      8.6890 eV  142.69 nm  f=0.0014  <S**2>=0.000
      30 -> 39         0.59373
      32 -> 39         0.31400
 
 Excited State  23:      Singlet-A      8.7716 eV  141.35 nm  f=0.0179  <S**2>=0.000
      37 -> 51        -0.11133
      38 -> 51         0.68966
 
 Excited State  24:      Singlet-A      8.8589 eV  139.95 nm  f=0.0002  <S**2>=0.000
      36 -> 41         0.12227
      37 -> 41        -0.26355
      37 -> 42         0.54939
      38 -> 53        -0.22999
 
 Excited State  25:      Singlet-A      8.9340 eV  138.78 nm  f=0.0049  <S**2>=0.000
      36 -> 40        -0.10003
      37 -> 44         0.46894
      38 -> 50         0.10439
      38 -> 52         0.48791
 
 Excited State  26:      Singlet-A      8.9710 eV  138.21 nm  f=0.0000  <S**2>=0.000
      37 -> 43         0.60872
      37 -> 45        -0.14469
      38 -> 53         0.20571
 
 Excited State  27:      Singlet-A      9.0202 eV  137.45 nm  f=0.0041  <S**2>=0.000
      37 -> 42         0.27485
      37 -> 43        -0.16534
      37 -> 45         0.10122
      37 -> 49         0.10383
      38 -> 53         0.55198
      38 -> 54         0.14633
      38 -> 57         0.11178
 
 Excited State  28:      Singlet-A      9.0777 eV  136.58 nm  f=0.0089  <S**2>=0.000
      28 -> 39         0.61705
      31 -> 39        -0.18027
      34 -> 39        -0.10576
      35 -> 40         0.16157
 
 Excited State  29:      Singlet-A      9.1317 eV  135.77 nm  f=0.0198  <S**2>=0.000
      36 -> 40        -0.12859
      37 -> 44         0.48075
      38 -> 52        -0.47219
 
 Excited State  30:      Singlet-A      9.1335 eV  135.75 nm  f=0.0006  <S**2>=0.000
      37 -> 48         0.10337
      38 -> 53        -0.16058
      38 -> 54         0.62463
      38 -> 55         0.17466
 
 Excited State  31:      Singlet-A      9.2750 eV  133.68 nm  f=0.0555  <S**2>=0.000
      29 -> 39         0.68790
      29 -> 40         0.14166
 
 Excited State  32:      Singlet-A      9.3781 eV  132.21 nm  f=0.0045  <S**2>=0.000
      37 -> 45        -0.11341
      37 -> 49         0.12409
      38 -> 54        -0.19120
      38 -> 55         0.60738
 
 Excited State  33:      Singlet-A      9.4498 eV  131.20 nm  f=0.0007  <S**2>=0.000
      26 -> 39         0.29160
      28 -> 39        -0.20312
      34 -> 44         0.17518
      35 -> 40         0.48837
      38 -> 57        -0.17586
 
 Excited State  34:      Singlet-A      9.5369 eV  130.00 nm  f=0.0042  <S**2>=0.000
      26 -> 39         0.10702
      35 -> 40         0.17115
      37 -> 45         0.25792
      37 -> 54         0.11667
      38 -> 53        -0.10319
      38 -> 55         0.14353
      38 -> 57         0.54526
 
 Excited State  35:      Singlet-A      9.5872 eV  129.32 nm  f=0.0004  <S**2>=0.000
      26 -> 39         0.43403
      30 -> 40         0.11516
      32 -> 40        -0.12358
      34 -> 40         0.10061
      35 -> 40        -0.28108
      37 -> 45         0.29157
      38 -> 57        -0.17598
 
 Excited State  36:      Singlet-A      9.6157 eV  128.94 nm  f=0.0004  <S**2>=0.000
      26 -> 39        -0.24618
      34 -> 40        -0.11221
      35 -> 40         0.15453
      37 -> 43         0.13177
      37 -> 45         0.48788
      38 -> 57        -0.25459
 
 Excited State  37:      Singlet-A      9.7265 eV  127.47 nm  f=0.0053  <S**2>=0.000
      23 -> 39        -0.10305
      26 -> 39        -0.18824
      34 -> 40         0.32180
      35 -> 44         0.25498
      36 -> 43        -0.13360
      37 -> 46        -0.25982
      37 -> 47        -0.23024
      38 -> 58        -0.14361
      38 -> 59         0.14543
 
 Excited State  38:      Singlet-A      9.7354 eV  127.35 nm  f=0.0511  <S**2>=0.000
      27 -> 39        -0.10793
      37 -> 56        -0.12658
      38 -> 56         0.67423
 
 Excited State  39:      Singlet-A      9.7668 eV  126.94 nm  f=0.0018  <S**2>=0.000
      34 -> 40         0.32917
      35 -> 44         0.26527
      37 -> 46         0.25019
      37 -> 47         0.22835
      37 -> 48        -0.11629
      38 -> 58         0.27782
      38 -> 59        -0.15499
 
 Excited State  40:      Singlet-A      9.7829 eV  126.74 nm  f=0.0368  <S**2>=0.000
      25 -> 39        -0.13266
      27 -> 39         0.63082
      27 -> 40        -0.10008
      36 -> 40        -0.21537
      38 -> 56         0.10685
 
 Excited State  41:      Singlet-A      9.8320 eV  126.10 nm  f=0.0068  <S**2>=0.000
      27 -> 39         0.21590
      36 -> 40         0.61679
      37 -> 44         0.16643
      38 -> 60         0.11361
 
 Excited State  42:      Singlet-A      9.8904 eV  125.36 nm  f=0.0044  <S**2>=0.000
      36 -> 41         0.17629
      36 -> 43        -0.12982
      37 -> 46        -0.35908
      37 -> 49         0.11422
      38 -> 55        -0.13880
      38 -> 58         0.37952
      38 -> 59        -0.27502
 
 Excited State  43:      Singlet-A      9.9555 eV  124.54 nm  f=0.0006  <S**2>=0.000
      36 -> 41         0.19530
      37 -> 47         0.48865
      37 -> 48         0.13975
      37 -> 49         0.22144
      38 -> 58        -0.23524
 
 Excited State  44:      Singlet-A     10.0146 eV  123.80 nm  f=0.0560  <S**2>=0.000
      34 -> 41         0.12475
      34 -> 42        -0.25464
      35 -> 41         0.60889
 
 Excited State  45:      Singlet-A     10.0167 eV  123.78 nm  f=0.0181  <S**2>=0.000
      36 -> 41         0.11831
      37 -> 48         0.10604
      38 -> 58         0.37533
      38 -> 59         0.50030
      38 -> 61        -0.13982
 
 Excited State  46:      Singlet-A     10.1508 eV  122.14 nm  f=0.0025  <S**2>=0.000
      34 -> 41        -0.43468
      34 -> 42        -0.14673
      34 -> 43        -0.10118
      35 -> 41         0.11249
      35 -> 42         0.46969
 
 Excited State  47:      Singlet-A     10.1870 eV  121.71 nm  f=0.0001  <S**2>=0.000
      36 -> 41         0.48643
      37 -> 46         0.25963
      37 -> 47        -0.16754
      37 -> 49        -0.16591
      38 -> 59        -0.13458
      38 -> 62         0.19543
 
 Excited State  48:      Singlet-A     10.2205 eV  121.31 nm  f=0.0023  <S**2>=0.000
      25 -> 39         0.22623
      36 -> 40        -0.13677
      37 -> 60         0.10540
      38 -> 60         0.58027
      38 -> 62         0.13447
      38 -> 63         0.14770
 
 Excited State  49:      Singlet-A     10.2223 eV  121.29 nm  f=0.0003  <S**2>=0.000
      36 -> 41        -0.11729
      37 -> 46        -0.13483
      37 -> 48        -0.16252
      38 -> 60        -0.13362
      38 -> 62         0.58394
 
 Excited State  50:      Singlet-A     10.3035 eV  120.33 nm  f=0.0002  <S**2>=0.000
      36 -> 43        -0.16219
      36 -> 45         0.13753
      36 -> 47         0.10007
      37 -> 46         0.30410
      37 -> 47        -0.15572
      37 -> 49         0.49218
      38 -> 53        -0.10162
 SavETr:  write IOETrn=   770 NScale= 10 NData=  16 NLR=1 NState=   50 LETran=     910.

 **********************************************************************

            Population analysis using the SCF Density.

 **********************************************************************

 Orbital symmetries:
       Occupied  (A) (A) (A) (A) (A) (A) (A) (A) (A) (A) (A) (A)
                 (A) (A) (A) (A) (A) (A) (A) (A) (A) (A) (A) (A)
                 (A) (A) (A) (A) (A) (A) (A) (A) (A) (A) (A) (A)
                 (A) (A)
       Virtual   (A) (A) (A) (A) (A) (A) (A) (A) (A) (A) (A) (A)
                 (A) (A) (A) (A) (A) (A) (A) (A) (A) (A) (A) (A)
                 (A) (A) (A) (A) (A) (A) (A) (A) (A) (A) (A) (A)
                 (A) (A) (A) (A) (A) (A) (A) (A) (A) (A) (A) (A)
                 (A) (A) (A) (A) (A) (A) (A) (A) (A) (A) (A) (A)
                 (A) (A) (A) (A) (A) (A) (A) (A) (A) (A) (A) (A)
                 (A) (A) (A) (A) (A) (A) (A) (A) (A) (A) (A) (A)
                 (A) (A) (A) (A) (A) (A) (A) (A) (A) (A) (A) (A)
                 (A) (A) (A) (A) (A) (A) (A) (A) (A) (A) (A) (A)
                 (A) (A) (A) (A) (A) (A) (A) (A) (A) (A) (A) (A)
                 (A) (A) (A) (A) (A) (A) (A) (A) (A) (A) (A) (A)
                 (A) (A) (A) (A) (A) (A) (A) (A) (A) (A) (A) (A)
                 (A) (A) (A) (A) (A) (A) (A) (A) (A) (A) (A) (A)
                 (A) (A) (A) (A) (A) (A) (A) (A) (A) (A) (A) (A)
                 (A) (A) (A) (A) (A) (A) (A) (A) (A) (A) (A) (A)
                 (A) (A) (A) (A) (A) (A) (A) (A) (A) (A) (A) (A)
                 (A) (A) (A) (A) (A) (A) (A) (A) (A) (A) (A) (A)
                 (A) (A) (A) (A) (A) (A) (A) (A) (A) (A) (A) (A)
                 (A) (A) (A) (A) (A) (A) (A) (A) (A) (A) (A) (A)
                 (A) (A) (A) (A) (A) (A) (A) (A) (A) (A) (A) (A)
                 (A) (A) (A) (A) (A) (A) (A) (A) (A) (A) (A) (A)
                 (A) (A) (A) (A) (A) (A) (A) (A) (A) (A) (A) (A)
                 (A) (A) (A) (A) (A) (A) (A) (A) (A) (A) (A) (A)
                 (A) (A) (A) (A) (A) (A) (A) (A) (A) (A) (A) (A)
                 (A) (A) (A) (A) (A) (A) (A) (A) (A) (A) (A) (A)
                 (A) (A) (A) (A) (A) (A) (A) (A) (A) (A) (A) (A)
                 (A) (A) (A) (A) (A) (A) (A) (A) (A) (A) (A) (A)
                 (A) (A) (A) (A) (A) (A) (A) (A) (A) (A) (A) (A)
                 (A) (A) (A) (A) (A) (A) (A) (A) (A) (A) (A) (A)
                 (A) (A) (A) (A) (A) (A) (A) (A) (A) (A) (A) (A)
                 (A) (A) (A) (A) (A) (A) (A) (A)
 The electronic state is 1-A.
 Alpha  occ. eigenvalues --  -10.40573 -10.40143 -10.39219 -10.39110 -10.39016
 Alpha  occ. eigenvalues --  -10.38398 -10.37939 -10.37837 -10.37773 -10.37709
 Alpha  occ. eigenvalues --   -0.90185  -0.88094  -0.82943  -0.78443  -0.75040
 Alpha  occ. eigenvalues --   -0.74270  -0.71089  -0.62415  -0.57682  -0.55744
 Alpha  occ. eigenvalues --   -0.52157  -0.50073  -0.48003  -0.46863  -0.45851
 Alpha  occ. eigenvalues --   -0.45277  -0.43627  -0.41820  -0.41637  -0.40985
 Alpha  occ. eigenvalues --   -0.40591  -0.39787  -0.39011  -0.37241  -0.35942
 Alpha  occ. eigenvalues --   -0.35855  -0.29603  -0.22288
 Alpha virt. eigenvalues --   -0.02005   0.06488   0.06940   0.07756   0.09025
 Alpha virt. eigenvalues --    0.09955   0.10806   0.11738   0.12377   0.13323
 Alpha virt. eigenvalues --    0.13874   0.14718   0.14875   0.16199   0.16740
 Alpha virt. eigenvalues --    0.17031   0.18289   0.18574   0.18646   0.19413
 Alpha virt. eigenvalues --    0.20520   0.21221   0.21564   0.21909   0.22942
 Alpha virt. eigenvalues --    0.23762   0.24942   0.25447   0.26654   0.27248
 Alpha virt. eigenvalues --    0.27870   0.28384   0.29617   0.32205   0.32345
 Alpha virt. eigenvalues --    0.33119   0.33701   0.33723   0.34308   0.36571
 Alpha virt. eigenvalues --    0.37352   0.38919   0.39216   0.40490   0.40887
 Alpha virt. eigenvalues --    0.41205   0.42166   0.42827   0.43296   0.45039
 Alpha virt. eigenvalues --    0.45745   0.46061   0.46541   0.47223   0.47906
 Alpha virt. eigenvalues --    0.48958   0.49989   0.50469   0.51245   0.51413
 Alpha virt. eigenvalues --    0.52326   0.52523   0.52610   0.52896   0.54161
 Alpha virt. eigenvalues --    0.54862   0.55657   0.57074   0.58528   0.60936
 Alpha virt. eigenvalues --    0.61922   0.62432   0.63881   0.63924   0.64399
 Alpha virt. eigenvalues --    0.66860   0.67565   0.67776   0.68438   0.70305
 Alpha virt. eigenvalues --    0.70705   0.71534   0.72310   0.73530   0.74872
 Alpha virt. eigenvalues --    0.76839   0.77367   0.79122   0.79282   0.82973
 Alpha virt. eigenvalues --    0.83139   0.86979   0.87422   0.89088   0.91886
 Alpha virt. eigenvalues --    0.92271   0.96007   0.97097   0.97486   0.99668
 Alpha virt. eigenvalues --    0.99674   1.02063   1.02307   1.02674   1.03248
 Alpha virt. eigenvalues --    1.04822   1.08217   1.08559   1.10631   1.10641
 Alpha virt. eigenvalues --    1.12776   1.14411   1.15811   1.17064   1.19137
 Alpha virt. eigenvalues --    1.19316   1.21805   1.23272   1.25814   1.26439
 Alpha virt. eigenvalues --    1.27127   1.28597   1.29990   1.31875   1.36026
 Alpha virt. eigenvalues --    1.37899   1.38569   1.39366   1.40260   1.45285
 Alpha virt. eigenvalues --    1.47800   1.49911   1.51263   1.52986   1.55143
 Alpha virt. eigenvalues --    1.55175   1.56658   1.57290   1.58118   1.58499
 Alpha virt. eigenvalues --    1.59062   1.59167   1.59902   1.60770   1.62924
 Alpha virt. eigenvalues --    1.62948   1.63262   1.64105   1.64531   1.64644
 Alpha virt. eigenvalues --    1.64943   1.65707   1.68139   1.68460   1.71419
 Alpha virt. eigenvalues --    1.71785   1.73205   1.76133   1.79751   1.80146
 Alpha virt. eigenvalues --    1.80706   1.82239   1.84490   1.86591   1.87831
 Alpha virt. eigenvalues --    1.91704   1.94958   1.96619   1.96969   1.98209
 Alpha virt. eigenvalues --    1.99489   2.03040   2.03175   2.04629   2.06451
 Alpha virt. eigenvalues --    2.06906   2.06961   2.08667   2.12033   2.12806
 Alpha virt. eigenvalues --    2.14043   2.16410   2.18751   2.21410   2.23368
 Alpha virt. eigenvalues --    2.24111   2.24828   2.28057   2.28147   2.30862
 Alpha virt. eigenvalues --    2.33146   2.33753   2.36008   2.38271   2.39668
 Alpha virt. eigenvalues --    2.40437   2.41816   2.41899   2.42257   2.43378
 Alpha virt. eigenvalues --    2.43690   2.45797   2.47203   2.49433   2.50194
 Alpha virt. eigenvalues --    2.52816   2.54610   2.54862   2.57171   2.57780
 Alpha virt. eigenvalues --    2.58726   2.59372   2.60922   2.62091   2.63072
 Alpha virt. eigenvalues --    2.64048   2.64569   2.65385   2.65939   2.67223
 Alpha virt. eigenvalues --    2.69461   2.69635   2.75569   2.76440   2.77062
 Alpha virt. eigenvalues --    2.78528   2.80093   2.81285   2.82297   2.84397
 Alpha virt. eigenvalues --    2.85110   2.86232   2.88233   2.90329   2.92595
 Alpha virt. eigenvalues --    2.93960   2.94003   2.94296   2.96483   2.96876
 Alpha virt. eigenvalues --    3.00546   3.01269   3.01422   3.03082   3.05781
 Alpha virt. eigenvalues --    3.05866   3.06941   3.08141   3.09697   3.10506
 Alpha virt. eigenvalues --    3.10988   3.12598   3.15655   3.16854   3.17018
 Alpha virt. eigenvalues --    3.17528   3.19125   3.19185   3.20163   3.21700
 Alpha virt. eigenvalues --    3.23229   3.23241   3.23891   3.24959   3.27348
 Alpha virt. eigenvalues --    3.28231   3.29853   3.30410   3.32051   3.33053
 Alpha virt. eigenvalues --    3.34977   3.35714   3.35822   3.37699   3.38300
 Alpha virt. eigenvalues --    3.39096   3.39259   3.40096   3.40925   3.41377
 Alpha virt. eigenvalues --    3.41520   3.42769   3.44228   3.46240   3.50090
 Alpha virt. eigenvalues --    3.50247   3.51702   3.52749   3.55908   3.56959
 Alpha virt. eigenvalues --    3.60481   3.61552   3.61968   3.63385   3.65711
 Alpha virt. eigenvalues --    3.66485   3.70837   3.72886   3.72912   3.74468
 Alpha virt. eigenvalues --    3.74912   3.78743   3.80897   3.83397   3.84535
 Alpha virt. eigenvalues --    3.88470   3.88768   3.88954   3.93854   3.94700
 Alpha virt. eigenvalues --    3.97099   3.99560   4.03271   4.05331   4.05453
 Alpha virt. eigenvalues --    4.05821   4.09158   4.10369   4.12480   4.15136
 Alpha virt. eigenvalues --    4.19345   4.26238   4.30461   4.31195   4.32070
 Alpha virt. eigenvalues --    4.35960   4.37571   4.40762   4.44207   4.44263
 Alpha virt. eigenvalues --    4.46067   4.46464   4.47342   4.49114   4.52524
 Alpha virt. eigenvalues --    4.54995   4.55148   4.58875   4.62068   4.63440
 Alpha virt. eigenvalues --    4.69807   4.70331   4.73331   4.76768   4.79014
 Alpha virt. eigenvalues --    4.83636   4.95534   4.96162   5.00198   5.02809
 Alpha virt. eigenvalues --    5.10749   5.14586   5.17844   5.24867   5.33134
 Alpha virt. eigenvalues --    5.36186   5.56523   5.62541  22.49080  22.57245
 Alpha virt. eigenvalues --   22.63808  22.68604  22.73301  22.75585  22.91498
 Alpha virt. eigenvalues --   23.04553  23.28059  23.36122
          Condensed to atoms (all electrons):
               1          2          3          4          5          6
     1  C    4.957550   0.333415  -0.057587   0.013179  -0.001165   0.000057
     2  C    0.333415   4.948565   0.652732  -0.053735  -0.005006  -0.001676
     3  C   -0.057587   0.652732   5.125114   0.332327  -0.040296   0.004177
     4  C    0.013179  -0.053735   0.332327   4.960841   0.558277  -0.026029
     5  C   -0.001165  -0.005006  -0.040296   0.558277   5.145859   0.318554
     6  C    0.000057  -0.001676   0.004177  -0.026029   0.318554   5.007137
     7  C   -0.000000   0.000056  -0.001490  -0.000192  -0.110379   0.648555
     8  C    0.000000  -0.000001   0.000076  -0.001381   0.013325  -0.005389
     9  C   -0.050761   0.330969  -0.060487  -0.007110   0.006543  -0.000288
    10  C   -0.000005  -0.000040  -0.001269   0.018858  -0.084059   0.315645
    11  H    0.403975  -0.032376  -0.004559  -0.000542   0.000051  -0.000002
    12  H    0.403947  -0.032369  -0.004567  -0.000543   0.000051  -0.000002
    13  H    0.417837  -0.055633   0.007269   0.001549  -0.000076   0.000012
    14  H   -0.012127  -0.040576   0.422416  -0.053880   0.012101   0.000138
    15  H    0.000074   0.003330  -0.053782   0.406693  -0.015295  -0.015998
    16  H   -0.000092   0.002207  -0.001353  -0.053815   0.437268  -0.063003
    17  H   -0.000000   0.000025  -0.000034   0.000929  -0.002086  -0.059747
    18  H    0.000000   0.000000   0.000007  -0.000111   0.002387   0.017632
    19  H   -0.000000  -0.000000  -0.000003   0.000064  -0.000907  -0.004861
    20  H   -0.000000  -0.000000  -0.000003   0.000064  -0.000908  -0.004785
    21  H    0.006297  -0.035655  -0.013227   0.001765   0.002785  -0.000187
    22  H   -0.001476  -0.036018  -0.000126  -0.000304  -0.000194   0.000004
    23  H   -0.001482  -0.036055  -0.000089  -0.000307  -0.000193   0.000004
    24  H    0.000002  -0.000128   0.000394   0.004883  -0.009859  -0.028642
    25  H   -0.000000   0.000006  -0.000022  -0.001378   0.013186  -0.042729
    26  H    0.000002  -0.000129   0.000396   0.004896  -0.009886  -0.028618
               7          8          9         10         11         12
     1  C   -0.000000   0.000000  -0.050761  -0.000005   0.403975   0.403947
     2  C    0.000056  -0.000001   0.330969  -0.000040  -0.032376  -0.032369
     3  C   -0.001490   0.000076  -0.060487  -0.001269  -0.004559  -0.004567
     4  C   -0.000192  -0.001381  -0.007110   0.018858  -0.000542  -0.000543
     5  C   -0.110379   0.013325   0.006543  -0.084059   0.000051   0.000051
     6  C    0.648555  -0.005389  -0.000288   0.315645  -0.000002  -0.000002
     7  C    5.086477   0.274790   0.000020  -0.025188  -0.000000  -0.000000
     8  C    0.274790   4.924990   0.000001  -0.018179  -0.000000  -0.000000
     9  C    0.000020   0.000001   4.945170  -0.000076  -0.000838  -0.000811
    10  C   -0.025188  -0.018179  -0.000076   4.967668  -0.000000  -0.000000
    11  H   -0.000000  -0.000000  -0.000838  -0.000000   0.535639  -0.033173
    12  H   -0.000000  -0.000000  -0.000811  -0.000000  -0.033173   0.535660
    13  H   -0.000000   0.000000   0.006403   0.000000  -0.019387  -0.019388
    14  H    0.000058   0.000002   0.006752   0.000265   0.000284   0.000285
    15  H    0.001300  -0.000016  -0.000674   0.006682  -0.000012  -0.000012
    16  H    0.005321   0.000593   0.000095   0.005452   0.000001   0.000001
    17  H    0.421682  -0.032817   0.000000   0.006755  -0.000000  -0.000000
    18  H   -0.069158   0.430430   0.000000  -0.005040  -0.000000  -0.000000
    19  H   -0.029558   0.405556  -0.000000   0.000803   0.000000  -0.000000
    20  H   -0.029641   0.405622  -0.000000   0.000802  -0.000000   0.000000
    21  H    0.000011   0.000000   0.420485   0.000015   0.000010   0.000010
    22  H   -0.000001  -0.000000   0.405624  -0.000001  -0.001385   0.004233
    23  H   -0.000001  -0.000000   0.405651  -0.000001   0.004235  -0.001389
    24  H   -0.004371   0.000858   0.000032   0.410576   0.000000  -0.000000
    25  H   -0.005662  -0.001164   0.000001   0.412510   0.000000   0.000000
    26  H   -0.004388   0.000859   0.000033   0.410568  -0.000000   0.000000
              13         14         15         16         17         18
     1  C    0.417837  -0.012127   0.000074  -0.000092  -0.000000   0.000000
     2  C   -0.055633  -0.040576   0.003330   0.002207   0.000025   0.000000
     3  C    0.007269   0.422416  -0.053782  -0.001353  -0.000034   0.000007
     4  C    0.001549  -0.053880   0.406693  -0.053815   0.000929  -0.000111
     5  C   -0.000076   0.012101  -0.015295   0.437268  -0.002086   0.002387
     6  C    0.000012   0.000138  -0.015998  -0.063003  -0.059747   0.017632
     7  C   -0.000000   0.000058   0.001300   0.005321   0.421682  -0.069158
     8  C    0.000000   0.000002  -0.000016   0.000593  -0.032817   0.430430
     9  C    0.006403   0.006752  -0.000674   0.000095   0.000000   0.000000
    10  C    0.000000   0.000265   0.006682   0.005452   0.006755  -0.005040
    11  H   -0.019387   0.000284  -0.000012   0.000001  -0.000000  -0.000000
    12  H   -0.019388   0.000285  -0.000012   0.000001  -0.000000  -0.000000
    13  H    0.509287   0.003391   0.000030   0.000018   0.000000   0.000000
    14  H    0.003391   0.506368   0.003763   0.005390   0.000029  -0.000000
    15  H    0.000030   0.003763   0.494697   0.005359   0.000060  -0.000007
    16  H    0.000018   0.005390   0.005359   0.503486   0.004954   0.000047
    17  H    0.000000   0.000029   0.000060   0.004954   0.508280   0.003857
    18  H    0.000000  -0.000000  -0.000007   0.000047   0.003857   0.512246
    19  H   -0.000000   0.000000   0.000001  -0.000048  -0.001571  -0.020412
    20  H   -0.000000   0.000000   0.000001  -0.000048  -0.001597  -0.020422
    21  H   -0.000270  -0.000049   0.002726   0.000008  -0.000000  -0.000000
    22  H   -0.000026  -0.000209  -0.000159  -0.000001  -0.000000  -0.000000
    23  H   -0.000025  -0.000208  -0.000158  -0.000001  -0.000000  -0.000000
    24  H   -0.000000  -0.000014  -0.001901  -0.000127  -0.000272  -0.000203
    25  H    0.000000   0.000002   0.000511  -0.000108   0.000190   0.005757
    26  H   -0.000000  -0.000014  -0.001900  -0.000127  -0.000273  -0.000202
              19         20         21         22         23         24
     1  C   -0.000000  -0.000000   0.006297  -0.001476  -0.001482   0.000002
     2  C   -0.000000  -0.000000  -0.035655  -0.036018  -0.036055  -0.000128
     3  C   -0.000003  -0.000003  -0.013227  -0.000126  -0.000089   0.000394
     4  C    0.000064   0.000064   0.001765  -0.000304  -0.000307   0.004883
     5  C   -0.000907  -0.000908   0.002785  -0.000194  -0.000193  -0.009859
     6  C   -0.004861  -0.004785  -0.000187   0.000004   0.000004  -0.028642
     7  C   -0.029558  -0.029641   0.000011  -0.000001  -0.000001  -0.004371
     8  C    0.405556   0.405622   0.000000  -0.000000  -0.000000   0.000858
     9  C   -0.000000  -0.000000   0.420485   0.405624   0.405651   0.000032
    10  C    0.000803   0.000802   0.000015  -0.000001  -0.000001   0.410576
    11  H    0.000000  -0.000000   0.000010  -0.001385   0.004235   0.000000
    12  H   -0.000000   0.000000   0.000010   0.004233  -0.001389  -0.000000
    13  H   -0.000000  -0.000000  -0.000270  -0.000026  -0.000025  -0.000000
    14  H    0.000000   0.000000  -0.000049  -0.000209  -0.000208  -0.000014
    15  H    0.000001   0.000001   0.002726  -0.000159  -0.000158  -0.001901
    16  H   -0.000048  -0.000048   0.000008  -0.000001  -0.000001  -0.000127
    17  H   -0.001571  -0.001597  -0.000000  -0.000000  -0.000000  -0.000272
    18  H   -0.020412  -0.020422  -0.000000  -0.000000  -0.000000  -0.000203
    19  H    0.527815  -0.029524  -0.000000  -0.000000   0.000000   0.000305
    20  H   -0.029524   0.527805  -0.000000   0.000000  -0.000000  -0.000174
    21  H   -0.000000  -0.000000   0.508427  -0.019650  -0.019657   0.000069
    22  H   -0.000000   0.000000  -0.019650   0.529475  -0.030490  -0.000005
    23  H    0.000000  -0.000000  -0.019657  -0.030490   0.529478   0.000010
    24  H    0.000305  -0.000174   0.000069  -0.000005   0.000010   0.526248
    25  H   -0.000146  -0.000144  -0.000004  -0.000000  -0.000000  -0.018799
    26  H   -0.000175   0.000304   0.000069   0.000010  -0.000005  -0.032585
              25         26
     1  C   -0.000000   0.000002
     2  C    0.000006  -0.000129
     3  C   -0.000022   0.000396
     4  C   -0.001378   0.004896
     5  C    0.013186  -0.009886
     6  C   -0.042729  -0.028618
     7  C   -0.005662  -0.004388
     8  C   -0.001164   0.000859
     9  C    0.000001   0.000033
    10  C    0.412510   0.410568
    11  H    0.000000  -0.000000
    12  H    0.000000   0.000000
    13  H    0.000000  -0.000000
    14  H    0.000002  -0.000014
    15  H    0.000511  -0.001900
    16  H   -0.000108  -0.000127
    17  H    0.000190  -0.000273
    18  H    0.005757  -0.000202
    19  H   -0.000146  -0.000175
    20  H   -0.000144   0.000304
    21  H   -0.000004   0.000069
    22  H   -0.000000   0.000010
    23  H   -0.000000  -0.000005
    24  H   -0.018799  -0.032585
    25  H    0.505464  -0.018801
    26  H   -0.018801   0.526267
 Mulliken charges:
               1
     1  C   -0.411640
     2  C    0.058091
     3  C   -0.306015
     4  C   -0.104999
     5  C   -0.230079
     6  C   -0.029959
     7  C   -0.158246
     8  C   -0.398155
     9  C   -0.406732
    10  C   -0.422741
    11  H    0.148079
    12  H    0.148067
    13  H    0.149010
    14  H    0.145835
    15  H    0.164685
    16  H    0.148525
    17  H    0.151635
    18  H    0.143192
    19  H    0.152661
    20  H    0.152649
    21  H    0.146021
    22  H    0.150699
    23  H    0.150683
    24  H    0.153703
    25  H    0.151330
    26  H    0.153700
 Sum of Mulliken charges =  -0.00000
 Mulliken charges with hydrogens summed into heavy atoms:
               1
     1  C    0.033516
     2  C    0.058091
     3  C   -0.160180
     4  C    0.059686
     5  C   -0.081554
     6  C   -0.029959
     7  C   -0.006611
     8  C    0.050347
     9  C    0.040671
    10  C    0.035993
 Electronic spatial extent (au):  <R**2>=           2877.5812
 Charge=             -0.0000 electrons
 Dipole moment (field-independent basis, Debye):
    X=              0.1641    Y=              0.5881    Z=              0.0002  Tot=              0.6105
 Quadrupole moment (field-independent basis, Debye-Ang):
   XX=            -51.1295   YY=            -58.4779   ZZ=            -67.4315
   XY=              1.1150   XZ=              0.0012   YZ=              0.0003
 Traceless Quadrupole moment (field-independent basis, Debye-Ang):
   XX=              7.8835   YY=              0.5350   ZZ=             -8.4185
   XY=              1.1150   XZ=              0.0012   YZ=              0.0003
 Octapole moment (field-independent basis, Debye-Ang**2):
  XXX=             -0.7756  YYY=             -3.6532  ZZZ=              0.0013  XYY=             -2.2567
  XXY=              0.5867  XXZ=              0.0043  XZZ=              2.5895  YZZ=              3.3072
  YYZ=              0.0014  XYZ=              0.0042
 Hexadecapole moment (field-independent basis, Debye-Ang**3):
 XXXX=          -3172.0989 YYYY=           -436.5648 ZZZZ=           -104.0393 XXXY=             25.8207
 XXXZ=             -0.0064 YYYX=             -1.4350 YYYZ=              0.0012 ZZZX=              0.0245
 ZZZY=              0.0000 XXYY=           -623.2428 XXZZ=           -586.9392 YYZZ=            -93.1069
 XXYZ=             -0.0129 YYXZ=             -0.0171 ZZXY=              6.0546
 N-N= 4.785987318692D+02 E-N=-1.861402267858D+03  KE= 3.878847699356D+02

 Test job not archived.
 1\1\GINC-CN04\SP\RPBEPBE TD-FC\def2TZVP\C10H16\2100011873\04-Nov-2023\
 0\\# td=(nstates=50) PBEPBE/def2TZVP IOp(3/76=1000003750) IOp(3/77=062
 5006250) IOp(3/78=1000010000) scrf(smd, solvent=ethanol)\\B-2\\0,1\C,0
 ,4.186043,-0.985243,-0.000113\C,0,2.965678,-0.099955,0.000017\C,0,1.72
 4259,-0.63647,-0.000213\C,0,0.452578,0.059668,-0.000179\C,0,-0.741079,
 -0.579413,-0.000205\C,0,-2.064372,0.040415,-0.000137\C,0,-3.152878,-0.
 763225,0.000253\C,0,-4.604173,-0.385851,0.000427\C,0,3.260391,1.378273
 ,0.000567\C,0,-2.133175,1.550261,-0.000541\H,0,4.817179,-0.791217,-0.8
 79673\H,0,4.817098,-0.791647,0.879598\H,0,3.922096,-2.047445,-0.000374
 \H,0,1.652379,-1.72528,-0.000493\H,0,0.469127,1.146468,-0.000113\H,0,-
 0.735417,-1.670538,-0.000304\H,0,-2.968126,-1.838635,0.00044\H,0,-4.77
 3466,0.693748,0.001475\H,0,-5.114894,-0.80271,-0.879231\H,0,-5.115042,
 -0.80447,0.879137\H,0,2.363003,2.000757,0.000075\H,0,3.859006,1.653716
 ,0.880554\H,0,3.86032,1.65418,-0.878355\H,0,-1.627265,1.964044,-0.8821
 02\H,0,-3.158688,1.923675,-0.000452\H,0,-1.626926,1.964596,0.880567\\V
 ersion=ES64L-G16RevC.02\State=1-A\HF=-390.3589973\RMSD=7.578e-09\PG=C0
 1 [X(C10H16)]\\@


 THE WORLD IS NOT A HAMBURGER - YOU CAN'T HAVE IT YOUR WAY.
 Job cpu time:       0 days  3 hours 23 minutes 30.6 seconds.
 Elapsed time:       0 days  0 hours  6 minutes 50.0 seconds.
 File lengths (MBytes):  RWF=   3120 Int=      0 D2E=      0 Chk=    256 Scr=     32
 Normal termination of Gaussian 16 at Sat Nov  4 18:48:14 2023.
